# vtk DataFile Version 3.0
vtk output
ASCII
DATASET POLYDATA
POINTS 10242 float
-53.233987 5.148989 46.489266
-5.297678 39.367133 42.363974
-46.954610 -79.262106 43.012150
-13.129537 -98.672381 48.457998
-20.714842 -56.717630 82.892862
-27.165515 -15.518696 72.339666
-42.277825 -73.691755 3.683379
-34.206671 -14.581912 12.545009
-11.296799 -49.562546 27.194896
-14.855752 -34.814548 67.507873
-60.559128 -35.630865 34.330012
-56.625014 -37.902308 58.161708
-27.513332 -42.091024 94.129160
-40.589106 -20.894104 2.790369
-32.434904 34.581334 41.229918
-32.119151 -86.736499 34.051979
-50.042700 -82.589726 25.614338
-27.790191 -69.360677 67.184408
-24.878168 13.848535 35.351819
-49.188672 5.010140 63.641650
-65.257060 -37.031431 10.057337
-44.598103 -51.849789 79.966964
-52.870623 -3.742187 21.796816
-50.740145 -24.665640 72.394802
-58.271014 -59.917991 31.719879
-55.959718 -59.684147 62.205993
-32.930316 -24.749574 42.518179
-57.465215 -9.321955 43.828448
-1.538640 -40.978871 54.660550
-51.242670 -49.661521 45.718907
-21.494661 -77.519371 33.746627
-11.674972 -68.205251 61.045617
0.488709 -2.230631 35.439612
-7.881147 4.797592 62.869983
-28.644861 -69.531274 13.954199
-5.110891 -61.191428 84.750339
-35.292250 -38.637974 20.928586
-10.172284 -15.039068 90.957536
-13.303192 -100.945617 5.545963
-16.244421 -85.324180 80.907548
-15.341032 22.332939 16.233821
-20.982231 23.080777 69.120267
-17.275909 -54.388444 81.751899
-45.401116 -45.572460 5.313066
-31.334322 12.770886 22.761171
-29.741221 10.662805 58.206108
-31.442926 -93.175288 7.967501
-29.975482 -80.670022 71.928796
-22.330051 -31.245459 74.303668
-30.543576 -4.133180 -1.287635
-50.168395 -71.013281 36.323345
-45.440510 -75.473862 60.954604
-41.069478 -4.836542 41.234619
-50.031739 -3.693133 44.793263
-2.526880 21.011916 70.309697
-6.204849 12.632039 21.726667
-7.649132 -76.069612 65.830121
-3.893615 -81.276233 23.201987
-51.606813 -31.433163 21.106455
-53.716105 -42.008441 71.908935
-56.627366 -21.664558 29.719897
-41.625613 -32.277664 56.450544
-39.385873 -76.943743 14.519283
-33.706808 -68.852431 79.457459
-31.845264 -84.262862 58.778479
-33.286380 -89.536085 29.407040
-40.475422 26.974938 50.480227
-41.153998 25.976557 25.492527
-31.845177 -2.404267 24.415754
-32.338625 0.298496 77.967907
-17.523320 4.751791 79.337483
-14.581467 -12.627998 22.534360
-6.555426 -78.166286 87.152700
-6.037435 -88.551442 4.014138
-41.072720 -42.619734 32.350790
-57.664031 -23.406948 53.221111
-69.041456 -44.047833 30.957764
-53.510626 -46.696169 50.247420
-47.223822 26.073610 40.359442
-36.180584 -84.296586 44.497452
-1.467628 -46.031746 38.765157
-4.059570 -35.421042 63.297621
-37.591710 -45.316787 11.258864
-10.833984 -49.647679 97.035895
-29.934925 -75.851534 11.737345
-14.695404 -62.451671 98.694437
-39.145569 -25.348686 16.186978
-25.349329 -11.585350 88.010426
-27.731150 -26.157484 4.546197
-14.625043 -27.372170 85.926524
-34.118955 -74.476716 47.639655
-43.166575 -77.687480 35.477258
-35.524129 8.314602 50.358193
-38.378011 6.705484 34.310943
-3.692970 -79.305913 44.099947
-3.569931 12.303743 48.810608
-36.172518 -42.170651 47.471708
-54.887326 -32.339611 45.554686
-55.204575 -59.454765 39.447482
-62.806397 -57.667014 48.856219
-5.041892 -2.502786 81.962241
-3.951327 -23.989408 18.750981
-6.368108 -63.543926 74.661945
-10.480502 -66.127355 23.328612
-37.344334 -40.715774 63.931395
-64.255623 -11.922652 16.557751
-3.082079 -35.680450 88.423642
-22.547533 -44.386403 11.526483
-55.679562 -17.022921 58.597972
-41.622820 -31.678721 22.214767
-39.662942 -48.443250 56.718304
-61.050952 -49.925263 18.334823
0.671236 -22.566645 45.398275
-4.801784 -14.985953 60.742919
-7.971239 -60.645982 40.885473
-5.123006 -54.234645 56.428992
-56.558160 -72.694123 50.203350
-49.818515 -18.216910 40.582901
-18.044135 -90.661515 68.282452
-13.740927 -93.248667 23.081511
-9.810647 40.993877 56.445831
-3.749093 42.966103 20.551363
-54.476456 -27.497808 4.484228
-27.465798 -46.588846 72.099222
-59.141906 -58.558159 7.357418
-36.880410 -56.605284 84.649118
-39.697949 2.563349 11.862069
-36.102280 -25.558919 83.461627
-48.494037 -2.724615 1.861958
-39.812735 -34.624581 82.975654
-42.171050 -50.881538 30.185055
-61.837937 -36.878734 45.830273
-18.797575 48.904601 38.595265
-22.317443 -96.128772 35.327325
-4.082258 -31.001829 30.913522
-10.741814 -14.622339 68.516522
-15.354935 -63.836080 28.550875
-8.340608 -56.159292 66.890157
-39.585817 -14.550540 70.479493
-37.958554 -14.539189 22.812472
-33.774539 -59.912754 69.054256
-62.272542 -69.176347 10.479405
-22.884746 -91.167766 9.405461
-15.258534 -69.536948 75.793413
-20.979773 -77.958803 57.078184
-19.037592 -102.948816 23.669158
-24.893122 30.137120 55.746290
-23.839685 37.778798 27.496004
-22.861970 0.022915 19.720941
-19.819883 2.533219 69.129687
-22.033984 -56.028747 17.358117
-10.697336 -49.405868 72.889954
-23.585923 -45.486335 21.297098
-5.114432 -24.793997 81.401703
-34.596736 -10.068793 54.179733
-32.297968 -8.678187 41.273218
-39.825933 -57.031914 54.224767
-54.801703 -66.514028 24.102553
-12.314485 -89.578198 39.811871
-5.204127 -84.166976 60.344805
-2.783052 26.801182 32.177597
-6.040490 24.219046 51.782229
-38.338336 -86.165357 5.433062
-24.996730 -65.891273 73.524639
-26.677412 -1.861954 20.511154
-30.731892 2.173664 69.017884
-22.177541 -20.448675 74.420817
-26.968809 -8.564024 9.468483
-24.873072 -34.685407 88.050889
-33.426242 -12.932502 -3.841624
-38.822874 40.118553 28.541038
-33.903763 26.880123 55.267211
-29.233380 -99.197147 19.248693
-27.275186 -77.550975 55.608131
-20.602083 -48.239399 84.593245
-44.253497 -32.184176 14.155631
-22.316206 -53.543932 92.449380
-41.458685 -59.173761 8.614594
-45.175114 -66.493197 47.642551
-49.826477 1.948402 34.839662
-13.226719 -84.099259 51.561831
-2.446196 29.600941 42.257186
-52.076259 -63.558748 54.718750
-56.921459 -66.446899 43.323152
-52.821288 -25.698911 43.896198
-43.527195 -28.869236 47.263048
-50.436653 -58.145448 56.929926
-54.540374 -64.866751 27.047400
-47.043797 -15.974117 50.101601
-35.649749 -19.878824 40.966328
-26.753650 -23.737313 93.074149
-28.010861 -25.128959 7.989950
-6.880310 -59.788205 92.922396
-37.609184 -60.370386 11.922254
-3.078271 -18.830349 33.495528
-10.334795 -5.155338 67.574525
-18.056928 -71.854917 29.412191
-10.194456 -61.963701 62.211365
-52.805403 -35.389556 9.125050
-22.916501 -53.259512 75.111954
-43.852057 -13.340167 -2.464989
-33.758680 -35.863832 91.150879
-48.782789 -19.718743 5.213848
-23.952778 -43.471531 81.750081
-35.572997 -4.507675 1.201172
-31.200886 -33.441032 77.944792
-7.273571 -36.511921 58.512536
-0.384198 -44.352642 47.183843
-7.231058 -70.255164 73.074831
-7.772833 -77.293081 28.180770
-5.396320 10.814858 78.337274
-4.344921 -6.422780 25.422747
-28.325482 -54.574324 20.992880
-7.465690 -49.413734 85.722801
-32.509335 -43.858728 17.210276
-11.064411 -25.866776 93.130903
-56.014115 -25.324215 23.812624
-49.692628 -37.496431 64.823527
-30.520183 -77.611076 72.330439
-43.517339 -91.733358 16.954308
-37.810399 12.069453 69.405805
-34.198930 11.714657 26.132903
-9.678779 -70.312845 55.182660
-17.863831 -85.194484 35.208303
-3.509320 15.358962 58.729077
-3.799047 13.825215 32.497526
-42.645600 -22.419303 47.120901
-57.229813 -12.125437 36.157338
-62.201663 -70.894640 38.026600
-54.575085 -67.531434 62.166415
-25.623956 -16.081243 4.147413
-20.309162 -22.995348 83.800970
-37.727902 -76.571877 5.772935
-15.867168 -59.031695 90.323301
-38.960021 -18.506869 13.352175
-20.877724 -12.333644 78.033257
-35.026444 -59.961072 6.421295
-14.020710 -54.392205 92.594225
-38.705384 3.030086 44.187357
-49.593293 0.362189 56.648199
-55.388901 -79.111637 32.288838
-40.879122 -69.988095 52.742043
-30.938568 -39.275758 77.601470
-55.283816 -11.194008 -2.645775
-49.382305 -73.697097 10.302241
-34.750346 -66.276476 75.908750
-36.485716 -7.709792 24.579848
-39.073280 -9.624070 74.447291
-47.103343 -1.332817 50.262679
-42.736516 1.682922 40.333166
-48.021778 -74.671296 45.900400
-44.397391 -72.765076 36.090659
-5.955635 -13.553330 64.376037
-3.244196 -26.279894 38.988683
-5.539929 -53.738470 62.139799
-8.724600 -63.508233 32.050548
-7.116269 2.696855 22.706322
-11.407375 17.909729 77.907663
-14.515855 -86.684789 16.745727
-9.051736 -73.997154 75.805821
-16.932689 -24.570263 94.050576
-29.806202 -33.496143 12.495523
-2.568210 -55.771082 92.823893
-31.899384 -56.051384 14.006570
-15.348298 -46.695972 22.191372
-6.299995 -30.118381 73.486791
-15.372767 -54.411607 23.649332
-13.687839 -43.055344 69.175665
-49.630038 -55.616123 33.201607
-66.099566 -47.619332 44.507498
-35.873533 -52.144329 42.812046
-54.616312 -37.071704 52.702666
-37.356868 -94.500902 41.322947
-35.700812 -91.461424 54.564546
-45.999282 26.399420 33.958106
-36.528644 26.401150 45.573475
-62.976023 -71.952806 31.434923
-41.077093 -67.199218 57.928554
-34.121096 -7.079364 45.955129
-43.945148 -7.972955 51.345059
-57.247033 -6.611899 4.437616
-38.837605 -39.325766 73.512356
-56.522853 -20.103774 7.996332
-32.587272 -46.473757 68.217201
-13.656398 47.552059 38.439448
-15.318818 -97.359057 41.163736
-22.483964 -93.509885 53.040748
-9.781225 -98.071180 31.456131
-14.927070 42.708798 47.233989
-7.844787 49.001584 31.540397
-25.730506 -71.777175 21.776028
-9.457175 -62.230417 67.170149
-2.785198 -28.223093 23.628347
-7.989602 -8.501231 76.125835
-7.969483 -98.731827 7.450090
-15.413752 -78.029477 80.065953
-15.242973 7.755074 21.869479
-22.927824 16.691966 78.045624
-37.867752 7.333268 58.298388
-32.727820 14.735588 38.346164
-29.157943 -70.292832 56.735713
-39.749212 -75.969171 27.721654
-56.050092 -40.664885 18.251095
-46.192301 -45.180677 65.443970
-50.960973 -24.662399 30.411844
-48.812823 -24.754265 58.845508
-49.543228 -8.155421 32.031028
-43.310594 -12.144108 37.331271
-52.140569 -74.822262 57.239728
-53.093404 -69.230293 43.211692
-58.094364 -52.083297 41.356804
-47.075802 -54.212901 41.299368
-50.045946 -39.900037 44.583067
-42.682875 -46.656491 46.113595
-44.450014 -78.339842 51.842193
[...]
POINT_DATA 10242
FIELD ScalarData 1
H 1 10242 float
0.480033
0.108679
-0.109426
-0.223478
0.009310
-0.076357
-0.113590
0.295295
0.163791
-0.201455
0.118925
-0.066074
0.115177
0.129401
0.117388
-0.303210
0.603931
-0.198610
-0.174155
0.215129
-0.032254
-0.003317
0.093331
-0.000512
0.119304
-0.286335
-0.374389
0.200432
0.198883
-0.068844
0.031600
0.245905
0.070138
0.028843
-0.092986
0.010550
0.025805
0.122748
-0.087347
0.762104
0.017196
-0.044256
-0.105032
0.202544
-0.437827
-0.006498
-0.448530
-0.495933
-0.183187
-0.126358
-0.114451
0.378828
0.067476
-0.074566
0.592497
-0.084920
-0.259261
0.182797
-0.106342
0.082850
0.079910
-0.132184
-0.156016
-0.002060
0.013749
-0.091481
0.034515
-0.217839
-0.072818
-0.122680
-0.106024
-0.263491
0.051277
0.348532
-0.316136
0.083563
0.172047
-0.014643
0.501621
-0.315448
0.510113
-0.065073
-0.128233
0.308143
-0.079850
0.164127
-0.057306
0.336868
0.123158
-0.043429
-0.309302
-0.050274
-0.085062
0.650646
1.355147
-0.105919
-0.276421
0.004075
-0.071107
-0.162887
0.381254
-0.083596
-0.013935
0.598288
-0.213655
0.257647
-0.225415
0.052830
-0.247656
-0.046515
-0.182731
-0.059917
-0.004872
-0.299099
-0.097503
0.165955
-0.236633
-0.161402
0.397169
-0.543192
-0.194506
0.020318
-0.138360
-0.188564
-0.193954
-0.043096
-0.004869
0.183065
-0.379968
-0.092307
-0.182557
0.366398
-0.023938
0.135433
0.050909
0.041714
-0.288842
0.244321
-0.132841
0.008507
-0.180005
0.963803
-0.772814
-0.329905
-0.029558
-0.109755
-0.015006
-0.008570
-0.197443
-0.132758
-0.201428
0.142858
-0.031080
0.326227
-0.215340
0.146071
-0.259907
-0.551735
-0.115587
0.248115
0.309553
-0.113792
0.052637
-0.066702
0.009110
-0.126576
-0.288862
0.722776
0.011850
0.232549
0.185486
-0.220658
0.085435
-0.102191
0.065421
-0.274316
0.114126
-0.298771
-0.286791
0.166704
-0.298580
0.172785
-0.110147
-0.197121
-0.082404
-0.099824
-0.193425
-0.119595
-0.215993
-0.100657
1.060609
-0.024503
-0.455113
-0.173147
-0.085880
-0.116222
-0.122187
0.054973
-0.343292
-0.197692
-0.217536
0.481769
-0.054046
-0.066316
-0.166111
-0.071710
-0.219256
-0.010054
0.013952
0.016931
-0.068918
0.078762
-0.210016
-0.177926
0.004780
-0.374918
0.167257
0.078829
-0.162360
-0.234392
0.602688
0.068391
-0.321448
-0.190179
0.238575
0.164858
-0.176678
-0.193637
0.152623
0.174577
-0.004305
-0.064111
-0.294282
-0.199223
-0.060491
-0.157575
-0.003928
-0.271203
-0.198309
0.008824
-0.043250
-0.052073
0.035228
0.092544
0.039427
-0.156584
0.121791
-0.230213
-0.230602
-0.168386
0.744012
-0.254486
-0.018884
-0.508011
-0.009579
-0.059793
-0.158603
0.177281
0.126416
-0.027936
0.196523
0.042712
0.259235
0.140229
0.269469
-0.054104
0.119838
0.027269
-0.109130
0.257228
-0.312763
-0.278004
0.343052
0.015807
0.013400
0.191231
0.279559
0.004032
0.018648
-0.001492
0.104226
-0.082017
-0.051896
-0.206552
-0.314413
-0.114536
-0.078390
0.001576
-0.286934
-0.247452
-0.356178
-0.166820
-0.047912
-0.075376
0.105836
-0.013523
-0.203276
0.406863
0.126307
-0.064735
-0.179523
-0.181833
-0.121471
-0.114605
0.154420
0.009263
-0.017016
0.265315
0.032888
0.194647
0.168489
-0.066290
-0.025654
-0.052554
0.309063
-0.351560
-0.073945
-0.084807
-0.356708
0.428342
0.408117
0.108063
-0.060179
-0.064450
-0.017199
-0.066125
0.171790
0.192087
0.052459
-0.111155
0.314727
-0.064297
-0.149637
-0.022938
-0.187063
-0.142145
-0.114266
-0.007250
0.044182
0.145475
-0.467010
0.652297
-0.027813
-0.142250
-0.149161
-0.250720
-0.143612
0.149183
-0.157484
-0.006029
-0.200684
0.282440
0.026120
0.015480
-0.205904
-0.052824
-0.187775
-0.112785
-0.077288
-0.323363
0.266770
-0.000547
-0.031655
-0.201210
0.045121
0.295085
0.039854
-0.286098
-0.005550
0.053450
-0.236087
-0.166874
-0.030517
0.163281
-0.031067
0.005881
0.019110
-0.049953
-0.235117
-0.174318
-0.009578
-0.055053
-0.208920
-0.123062
-0.391652
-0.197154
-0.145609
-0.199265
0.038195
0.072831
0.698070
0.039406
0.130137
-0.062543
0.075818
0.099404
-0.146940
0.167914
-0.028969
-0.085073
0.361183
0.197819
-0.165889
-0.243736
-0.252848
0.031132
-0.286498
-0.026725
-0.265091
-0.057726
-0.040525
0.036547
0.217879
0.087986
0.051982
-0.006856
-0.187939
-0.148643
0.040489
-0.043019
0.111583
0.712736
0.245938
-0.111414
0.336065
-0.063786
0.148496
0.091632
0.152552
0.041033
0.020375
-0.031155
-0.256879
-0.084165
-0.324944
0.099675
0.717279
-0.031407
-0.013847
0.184535
-0.041904
0.037018
-0.247289
0.155013
-0.115352
0.104117
-0.295451
-0.133549
-0.202198
0.424410
-0.025712
0.289142
0.629488
-0.092779
0.059204
-0.117542
-0.093107
-0.038434
-0.188169
0.818672
-0.406881
0.199389
-0.131397
-0.002728
-0.065247
0.180282
-0.001246
0.640049
0.276701
-0.034111
-0.231474
-0.083003
0.013062
0.117841
-0.015776
-0.031311
-0.263573
0.007015
0.013453
0.107426
-0.018850
-0.265739
-0.039804
0.093427
0.068002
-0.359544
0.509833
-0.303054
-0.145966
-0.115283
-0.168628
0.023743
0.142080
-0.111800
0.384207
-0.016682
0.168784
-0.092833
-0.343906
-0.276026
0.075391
0.211703
-0.257936
0.179325
-0.380186
0.071614
-0.184999
0.273194
0.126161
-0.109687
-0.556905
0.054284
0.026888
0.064228
-0.166643
-0.015612
0.118989
-0.109364
1.004597
-0.070558
0.036575
-0.254789
0.107534
-0.158188
-0.297772
0.064032
0.143675
-0.269873
-0.145089
-0.023767
0.050452
-0.183818
-0.167217
-0.091116
0.205176
0.107505
-0.141632
-0.054202
-0.254339
-0.021098
0.018900
-0.193252
-0.094280
0.026744
-0.362092
-0.077156
-0.065300
-0.233801
-0.206072
-0.141550
-0.002765
-0.137483
0.133291
0.198681
0.036355
0.319665
-0.323471
0.139635
-0.177335
-0.276093
0.302206
0.010916
-0.055003
0.057879
-0.223212
-0.283970
-0.091460
-0.011313
0.458067
-0.239188
-0.156322
-0.015921
-0.178317
-0.214079
0.003330
-0.244091
0.317034
-0.191378
-0.007571
-0.060961
0.048729
-0.141839
-0.009341
-0.142441
0.212523
0.381488
0.210996
0.107255
-0.234853
0.092383
-0.021461
0.493306
-0.108548
-0.045623
0.004736
-0.179158
0.123745
0.070665
0.050202
-0.136187
-0.151103
-0.200993
-0.106494
0.516324
-0.167037
-0.286452
0.142964
0.158535
-0.109340
-0.175731
-0.115369
-0.094113
0.254513
0.243037
0.323794
-0.245428
0.009054
0.158457
-0.053946
-0.096593
-0.217532
0.314605
-0.071108
0.190126
-0.053578
0.414256
0.085579
-0.251485
-0.016889
0.011653
-0.287998
-0.224741
0.151302
0.073728
0.044867
0.152770
-0.202189
0.266883
-0.069152
-0.073270
-0.471856
-0.040642
-0.562185
0.048895
-0.116877
-0.280456
-0.032527
0.100660
-0.033025
0.178615
-0.580038
-0.310016
0.778597
0.014429
-0.015025
-0.184749
-0.058003
0.098398
-0.032235
-0.095753
-0.072698
0.008119
-0.322321
-0.300684
-0.194147
0.030428
0.073635
0.209838
0.058117
0.295157
-0.302766
-0.250001
0.074893
-0.126761
0.249567
0.054981
0.237147
0.047657
-0.076835
0.466689
0.008821
0.152698
-0.153648
-0.243432
0.063871
-0.001989
-0.009469
-0.067566
0.102705
-0.075650
-0.344887
-0.154269
-0.093229
-0.099285
3.931917
-0.220882
0.096883
0.233881
0.005287
-0.230181
0.154665
0.123675
-0.270773
0.428129
-0.082519
-0.056205
0.096833
0.049935
0.088104
-0.064653
-0.235050
-0.124724
-0.150270
0.449223
0.020503
-0.085209
-0.252210
1.098558
0.288202
0.623526
0.117634
0.034410
-0.090969
0.248485
-0.078109
-0.418746
-0.071049
0.275010
-0.271196
0.228005
0.215503
-0.075589
-0.305691
0.507416
0.110347
-0.140896
-0.112146
-0.087210
-0.109850
0.010532
-0.313875
1.210048
-0.158385
-0.234698
-0.067225
-0.114198
-0.223571
0.006725
-0.145007
-0.186021
-0.106682
0.126724
-0.158025
-0.050415
0.098644
-0.261107
-0.103001
0.578533
0.041635
0.442813
-0.069943
-0.007043
0.126043
0.106021
0.036417
0.069242
-0.018870
-0.083959
-0.037629
-0.008177
0.187580
-0.070870
0.160497
-0.106768
-0.359095
-0.061378
-0.014933
0.154461
0.028247
-0.090172
-0.065844
0.114575
-0.107746
-0.007850
0.227795
-0.333418
0.144073
0.103798
0.163411
-0.309383
-0.010080
-0.190610
-0.081711
0.170955
0.074446
0.017425
-0.280092
-0.278521
1.779351
-0.251837
-0.270407
0.321712
0.101021
-0.249634
0.177429
-0.080431
0.027081
-0.081880
0.158041
-0.123049
-0.020221
0.035162
0.038195
0.101651
0.041152
0.037927
-0.388301
-0.054393
0.341541
-0.161516
-0.242390
0.118334
-0.138630
0.127899
0.120506
0.120557
-0.032640
0.283490
0.005121
-0.137567
-0.358994
-0.082501
-0.286523
0.228936
0.068133
-0.100152
-0.268547
0.018570
0.042372
0.124665
0.060949
0.044655
0.018482
0.321468
-0.085093
-0.117213
0.135684
-0.319153
-0.161211
-0.628129
0.269569
-0.275990
0.001007
0.330578
-0.011756
-0.190240
0.043319
0.044806
-0.460375
-0.357459
0.025668
0.122636
0.151486
0.860625
-0.096650
-0.104368
-0.136438
0.267650
0.000252
0.179965
0.037205
0.116117
-0.165951
0.079856
-0.104171
0.354199
-0.334288
-0.060738
-0.043112
-0.084038
0.120019
-0.048823
-0.389726
-0.217802
-0.170346
-0.023696
-0.244607
0.071603
-0.260254
0.008953
0.037397
-0.182227
-0.098996
0.362152
-0.094494
-0.045737
0.131414
-0.134116
-0.280346
0.159234
0.079950
0.074329
0.182729
-0.099741
-0.001154
0.071919
-0.217608
-0.023872
-0.008760
0.069208
0.696467
-0.037247
-0.046228
-0.055832
-0.045159
0.099210
0.076369
0.650595
-0.011255
0.000723
0.044342
0.086986
0.084289
-0.210317
-0.203739
0.005635
0.058551
0.097630
0.029065
-0.110700
-0.178590
-0.107714
-0.731528
0.026424
0.708639
-0.431764
-0.115709
-0.010137
-0.168518
-0.121859
-0.021305
-0.040767
0.090910
0.074120
-0.260382
-0.256752
0.198687
-0.000594
-0.097784
-0.109738
0.061744
-0.019860
-0.108904
-0.056310
-0.153372
-0.030643
0.346842
0.088297
0.321477
0.427996
-0.254731
0.326249
0.050664
-0.218685
0.097292
-0.169029
0.293909
0.304676
-0.081125
-0.133712
0.396363
-0.235752
-0.134241
-0.003661
0.045771
0.020764
-0.170738
0.396960
-0.181578
-0.193152
-0.068301
0.288403
-0.167106
-0.135239
0.083687
-0.086137
0.007070
-0.075789
-0.227597
0.668440
0.224112
0.062674
0.128728
-0.390124
-0.056647
0.070753
0.051305
-0.032809
0.238547
-0.104207
-0.223711
0.414059
-0.015014
0.333099
-0.271596
0.422094
0.156785
-0.084357
-0.065558
-0.340090
-0.028805
0.105232
-0.177816
-0.287499
-0.105253
-0.034982
-0.108356
0.060852
-0.094165
-0.212388
-0.106772
-0.108383
0.010837
-0.051623
0.192137
-0.031487
0.085119
-0.076955
-0.102321
0.129926
-0.066383
-0.063993
-0.009012
-0.373314
-0.260429
0.084373
0.071843
-0.221830
-0.145533
0.107397
0.258356
-0.154275
-0.036711
-0.097874
-0.083577
-0.067437
-0.298020
0.095386
-0.322936
-0.117245
-0.155411
0.830105
-0.037152
0.475228
0.265745
-0.259367
-0.229341
-0.007290
-0.167893
0.768905
-0.332977
0.133986
0.008517
0.112812
0.011753
-0.199670
-0.118541
-0.009844
0.034614
-0.125828
-0.156483
0.119163
-0.097239
-0.028935
-0.114661
-0.188495
-0.083669
-0.198980
-0.508787
0.045976
0.386207
-0.048561
-0.261338
0.464814
-0.069552
0.030493
-0.215226
0.047446
-0.142063
-0.239341
0.613385
-0.049927
0.078705
0.165329
-0.000131
0.016385
-0.340619
-0.126721
-0.013173
0.124766
0.218099
0.853871
-0.213764
0.111878
-0.082556
0.219725
0.078576
0.591914
-0.225482
-0.084039
-0.039920
0.251571
0.268407
0.094566
0.022200
-0.198850
-0.865902
0.076858
-0.137436
0.096166
-0.009476
0.015551
0.264370
0.072758
-0.214983
-0.305616
0.256019
-0.222604
0.047793
0.023265
-0.092328
-0.032606
-0.100858
-0.249205
-0.253232
0.114687
0.024913
0.083856
0.110692
0.258689
0.091367
-0.158009
0.040143
-0.228747
0.234240
0.015454
0.115778
0.070530
-0.045616
0.736694
0.307987
-0.080721
-0.233073
0.232228
-0.066785
-0.043513
0.096687
-0.099603
0.246370
0.215062
0.178701
0.039895
-0.047362
0.081318
-0.072979
-0.184853
-0.357498
0.504024
-0.214996
0.181104
-0.026083
-0.217637
0.333977
0.057349
-0.168961
0.351792
0.292261
-0.005712
-0.111527
0.020819
-0.169233
-0.147401
-0.198156
0.060508
-0.101188
-0.257197
-0.246425
-0.115591
-0.011985
-0.348459
-0.159109
-0.164960
0.101037
0.078516
0.008736
0.012890
-0.319945
0.007793
-0.412715
0.166195
0.056495
-0.035767
-0.253072
0.118244
0.291145
0.027983
-0.013427
-0.077918
-0.158873
-0.324962
-0.105081
-0.332700
-0.177304
-0.371907
-0.050163
0.225314
-0.078706
0.251200
-0.009296
-0.367581
-0.294396
-0.216477
-0.070518
-0.386777
0.321378
-0.235802
-0.079647
-0.001854
-0.119651
-0.187134
-0.024651
-0.288707
-0.133019
0.259389
0.220987
-0.129449
0.014074
-0.001539
-0.125235
-0.045416
-0.026709
-0.237417
0.354460
-0.138199
0.130875
0.014461
-0.020737
0.086039
-0.155571
0.658730
0.679353
0.124019
-0.021748
-0.692411
-0.057910
0.081795
-0.162583
-0.236371
-0.231906
-0.176663
-0.189864
0.059052
-0.128890
0.552324
-0.000650
-0.119309
-0.088069
0.213465
0.208199
0.395345
-0.158845
-0.127841
0.131345
0.353972
-0.057464
0.107387
-0.124804
-0.041572
-0.101485
0.233307
-0.081794
0.466307
-0.173472
-0.098655
0.015333
-0.260950
0.058008
-0.086055
0.101919
0.070789
-0.160071
-0.234553
-0.083232
-0.178590
0.071010
0.001280
0.197800
-0.119862
-0.012178
0.041535
0.829898
-0.086288
-0.108625
-0.065117
-0.120607
0.502566
0.385831
-0.226743
-0.097035
0.083609
0.563507
0.378395
0.014806
0.130285
-0.081461
0.033881
0.687540
0.436791
0.306749
-0.079955
-0.004300
-0.162015
-0.120541
0.257686
-0.043519
-0.049944
-0.168557
-0.203999
0.932219
0.084837
-0.026048
-0.210489
-0.259541
0.012681
0.198537
0.165861
-0.270597
0.138342
-0.104553
0.075070
0.370523
-0.098305
0.059752
0.059224
0.048413
0.034759
-0.047685
-0.404905
-0.076438
0.049849
0.091618
0.058068
-0.087450
0.000361
-0.074071
-0.074489
0.103482
0.269434
0.198987
0.036805
-0.571646
-0.182480
0.263304
-0.204917
0.409575
-0.000830
-0.040706
-0.218422
0.103065
-0.192220
0.172551
0.250301
0.023745
0.190325
-0.187452
0.073928
-0.117290
-0.068641
-0.309443
0.178350
-0.387275
0.021602
-0.024900
0.022631
-0.259515
-0.010296
0.005830
0.008690
0.043793
-0.174431
-0.139464
0.254543
-0.343743
-0.097754
-0.001411
0.659988
0.702494
0.178965
-0.196170
-0.157673
0.047385
-0.036850
0.288132
0.428921
-0.152071
0.142129
-0.098178
-0.146430
-0.040198
0.047266
-0.137832
-0.190951
-0.099748
-0.163760
0.311014
0.894148
-0.204893
0.283792
0.129135
0.043665
-0.071305
0.051612
0.045649
-0.053135
0.700667
-0.087943
0.390591
0.128727
-0.054216
0.188384
0.022497
-0.028124
-0.155948
0.077491
-0.087056
0.130493
0.845109
-0.068185
0.123675
-0.105043
0.020043
0.191783
-0.012689
-0.136073
-0.182590
-0.182494
-0.184503
0.244477
0.623106
1.486199
0.468061
0.217375
-0.199559
-0.054318
0.018062
-0.139257
0.049350
0.372993
0.947659
0.046086
-0.109115
-0.064918
-0.136306
0.404377
-0.138117
-0.292125
0.008357
-0.104234
-0.196898
0.123706
0.120581
0.553825
-0.236085
-0.152881
0.136680
0.146329
0.096777
-0.077121
-0.051391
0.542196
-0.091060
-0.127619
-0.428906
-0.114672
0.191443
0.000917
-0.297656
0.021161
-0.110753
-0.260644
0.191846
-0.113799
0.089512
-0.587865
0.061031
-0.078059
-0.150079
0.123327
-0.300317
0.109656
-0.238025
-0.021368
0.363170
1.215915
-0.240679
0.031272
0.082786
-0.104162
-0.300771
0.012326
0.005275
-0.012760
0.052885
-0.205124
-0.252193
0.295858
-0.066015
0.033761
-0.213888
-0.064914
-0.214780
0.138869
-0.055576
0.120561
-0.094179
0.099899
-0.150461
0.018654
0.024982
0.122701
0.065629
0.173396
0.011625
-0.104937
0.093236
0.065329
0.533401
-0.353286
0.081441
-0.344904
-0.097466
0.214723
-0.262782
-0.077122
-0.213425
-0.001245
0.059889
-0.318486
-0.151595
-0.152576
-0.274307
-0.006328
-0.134450
-0.153567
-0.031266
0.168410
-0.344084
-0.096602
0.138964
-0.251780
-0.034751
-0.087154
-0.239314
0.034998
-0.108172
-0.102816
-0.212056
-0.276026
-0.151000
-0.127976
-0.234854
-0.102461
-0.210998
-0.258389
0.259167
0.062912
0.355655
-0.268457
-0.052844
-0.121436
-0.112964
-0.057076
-0.111332
0.111526
0.039912
-0.119183
0.132399
-0.068760
-0.034614
0.117177
0.241630
-0.025852
-0.311841
-0.083842
0.076588
0.202892
-0.038205
-0.004384
-0.204458
-0.116449
1.179423
-0.214979
0.041111
-0.127187
0.177170
-0.248844
-0.038860
-0.317881
0.597649
-0.425918
-0.017123
0.067893
-0.108710
0.351369
-0.189865
0.000624
0.066503
0.082634
-0.047048
-0.024769
-0.195974
-0.301749
0.006533
-0.305003
0.031931
-0.076391
-0.236977
-0.263181
0.302145
-0.038759
0.107273
-0.000302
-0.100809
0.020977
0.448394
-0.407037
-0.209210
-0.150276
0.199812
-0.176198
-0.057319
0.626015
-0.007155
0.091148
0.465989
-0.023730
-0.013265
-0.034166
-0.220645
0.164642
-0.230950
-0.125956
0.077350
-0.094756
-0.059440
0.307849
-0.111110
0.084853
-0.072090
-0.087581
-0.062955
0.120081
0.072991
-0.262745
0.017092
0.222343
-0.100060
0.084656
0.257056
0.260498
-0.347478
-0.125390
0.126831
0.310971
0.436167
0.375518
0.063833
-0.075916
0.026796
0.223531
0.387185
-0.071806
0.199276
-0.242325
0.051908
-0.343335
0.128537
0.001288
-0.184941
-0.093712
-0.199095
-0.098058
0.144287
0.168010
-0.041533
0.275914
0.009619
-0.230926
-0.023335
0.125728
-0.061920
-0.317142
-0.162505
0.749232
-0.141642
-0.308880
0.033160
-0.047301
-0.304706
-0.104206
0.252726
0.054565
0.057152
0.024932
-0.184642
-0.237028
0.014820
0.010300
0.086290
-0.176033
-0.200043
0.002135
-0.318276
-0.028324
-0.091227
-0.095135
-0.009576
-0.182538
-0.347485
-0.017632
0.649444
-0.244865
-0.010297
0.060380
0.637183
0.266966
0.163432
0.131019
-0.085859
0.032952
-0.097543
-0.068093
-0.160891
0.357005
0.378487
-0.194553
0.044175
-0.034991
-0.267904
0.272203
-0.241348
-0.172614
0.050376
-0.135037
-0.084473
0.328477
-0.100633
-0.259910
-0.131619
-0.242593
0.298351
0.269315
-0.110889
-0.224722
0.199883
0.180714
-0.149381
0.009880
-0.060142
0.339169
0.048544
-0.091171
-0.208148
-0.570629
-0.001972
0.405155
0.059730
0.500057
-0.007847
-0.223874
-0.184571
-0.046908
0.501929
-0.204937
-0.245218
0.842114
0.208825
-0.048219
0.111223
0.013821
-0.233070
-0.041590
0.260737
0.179541
0.350491
-0.224802
-0.287754
-0.176537
-0.307036
-0.094763
0.165552
0.185403
-0.011508
-0.125229
0.010575
-0.203393
0.034965
-0.204786
0.246215
-0.010054
-0.202740
-0.078266
-0.093974
0.011862
0.005784
-0.651913
-0.229476
0.084704
-0.137817
-0.032773
0.020723
-0.107547
0.100182
0.233369
0.095897
0.053120
0.236667
-0.069314
-0.314311
0.320304
0.227103
0.307570
0.040064
0.527298
0.447008
0.040584
0.098154
-0.034923
0.087700
0.117856
0.891001
-0.033396
-0.025395
0.144507
0.393535
0.397005
0.142390
-0.146980
-0.078595
0.179004
0.466326
0.208114
0.148824
0.150067
-0.025462
-0.105200
-0.093461
0.042834
1.158026
0.199357
0.073836
-0.232746
-0.092874
0.274860
-0.011678
-0.086294
0.175748
0.036208
-0.051185
0.054648
0.180844
0.045713
0.058715
-0.156277
0.042837
0.194010
-0.089813
0.108061
-0.008836
-0.040588
-0.139078
-0.016569
0.011575
0.348685
-0.106215
0.118337
-0.258670
-0.218825
-0.087610
-0.015212
-0.177441
0.610358
0.219274
-0.088887
0.307442
-0.005254
-0.089963
0.016465
-0.149548
0.790955
0.082826
-0.095692
0.247414
-0.266122
0.172432
-0.131152
-0.330139
0.087476
0.650609
-0.025365
-0.035756
-0.132587
-0.139818
0.064595
0.157689
-0.383359
-0.048800
-0.120357
-0.253217
0.049585
0.149934
0.149226
0.390971
-0.061716
0.103182
-0.071502
-0.203818
-0.158526
0.068603
-0.055905
0.055353
-0.209017
-0.174122
-0.355520
-0.001868
-0.013741
0.103890
-0.142420
-0.062315
0.055689
-0.201370
0.189125
0.182384
-0.013230
0.153964
0.038456
-0.262508
-0.060222
-0.181291
0.409472
-0.066907
0.104667
-0.024863
-0.064926
-0.606576
0.117115
-0.161397
0.020213
-0.315922
0.118792
-0.200691
0.060412
0.024377
0.059168
0.099554
-0.282427
0.215392
-0.052064
0.036452
-0.080378
-0.108071
0.304294
-0.065209
-0.127974
0.004065
0.313901
-0.191935
0.185458
0.283174
-0.025775
0.513773
-0.187728
-0.204212
0.450949
-0.159242
0.181262
-0.224794
-0.154990
0.244195
0.094656
-0.313508
-0.486951
-0.149536
-0.137182
0.038662
-0.233492
0.192062
0.120691
0.048206
0.707228
-0.090542
0.307343
0.030467
-0.061642
0.346020
-0.011745
-0.202960
-0.099114
-0.511046
-0.130418
0.225343
-0.236413
-0.018906
-0.104037
-0.034161
0.106840
-0.661137
0.644777
-0.297984
-0.054507
0.048275
-0.081344
0.032897
0.140881
-0.261693
-0.379224
0.068512
0.160487
-0.080207
-0.176286
-0.164421
0.193905
0.096535
0.166178
0.141980
-0.071071
0.056066
0.200153
0.054587
0.231640
0.248247
-0.120879
-0.178524
0.029269
-0.268683
-0.452570
-0.051907
0.025651
-0.258904
-0.140243
-0.035206
0.239714
-0.379487
-0.488086
-0.064967
0.460264
-0.064037
0.252915
-0.083220
0.006494
0.046962
0.105071
-0.045168
-0.083115
-0.122825
0.058310
-0.009074
0.219249
0.224422
0.148810
0.115004
-0.108835
-0.078015
-0.150144
-0.194507
0.320888
-0.229225
-0.032921
0.055512
0.471849
-0.200661
-0.054235
0.160167
-0.290262
-0.076831
-0.103010