# vtk DataFile Version 3.0
vtk output
ASCII
DATASET POLYDATA
POINTS 40962 float
-53.170520 6.079306 45.937417
-4.664883 40.134246 42.857093
-47.155352 -79.574476 43.716645
-12.173334 -99.819182 49.991513
-20.618746 -56.117788 82.490836
-27.199960 -15.751662 72.670581
-43.236968 -74.117216 2.981833
-34.198683 -14.782684 12.649155
-10.984350 -49.782470 27.867612
-14.199409 -34.929649 67.074628
-60.762740 -35.167523 35.190338
-56.333977 -37.466779 57.521741
-27.316124 -42.207095 93.806824
-39.097132 -20.707604 3.048853
-32.563684 34.808828 41.406020
-31.789503 -86.611494 33.791148
-49.894616 -81.927797 26.093623
-28.040784 -69.270563 67.089777
-25.727638 14.505809 34.920840
-48.629370 4.643498 63.635066
-64.513032 -36.631791 9.727622
-44.463212 -51.614853 80.024795
-52.706642 -3.123144 22.503507
-50.781065 -24.242888 72.916609
-58.554401 -59.404691 32.467312
-56.336055 -59.463638 64.183243
-33.441349 -24.836028 42.356055
-56.348828 -9.123297 43.985749
-1.318202 -40.606553 54.785352
-51.046147 -49.866208 45.825099
-21.180620 -78.241330 32.959756
-11.946236 -68.891614 60.356380
0.863459 -2.325608 35.169682
-7.620788 5.011281 62.806025
-29.201748 -69.995734 13.721065
-4.853670 -60.973083 84.793947
-35.936681 -38.562336 20.712482
-9.812799 -15.216794 90.086453
-13.776567 -100.496116 5.332764
-16.070465 -85.710822 80.043154
-15.390244 21.816250 15.953280
-21.043094 23.770676 69.461604
-16.524358 -54.085220 81.442489
-44.357994 -45.538057 4.934877
-32.118587 13.592720 22.003561
-30.057328 10.391311 57.685931
-33.569685 -93.901366 7.356390
-29.450229 -81.527172 72.918829
-22.580897 -31.038525 74.603988
-30.945243 -4.498651 -2.447890
-49.943191 -70.934787 36.020553
-44.702227 -75.276388 61.806236
-41.190765 -5.008236 41.623927
-50.358886 -3.295274 45.061149
-2.756364 20.661116 69.100027
-6.278424 12.705681 22.621734
-7.211282 -77.492155 66.241101
-4.505427 -81.820181 23.410410
-51.590009 -31.735223 21.505417
-54.020046 -41.914332 71.761727
-56.829456 -20.934634 30.876659
-41.368685 -31.739621 56.592601
-40.041695 -76.862110 15.223152
-33.760079 -68.824767 79.455406
-31.719593 -83.830145 58.667528
-34.083059 -89.576467 29.891868
-40.835177 26.933927 50.644289
-42.589109 26.839100 25.196691
-32.472400 -3.123873 24.494375
-33.249051 0.457556 78.987758
-17.031851 4.471086 79.356922
-14.687235 -12.688289 20.958007
-6.316170 -78.322653 87.260226
-6.243751 -89.543404 6.051228
-40.429350 -41.822282 32.569125
-58.082428 -23.456266 52.932983
-68.407772 -44.018380 30.750251
-53.325543 -46.041075 50.196291
-46.638060 25.433224 40.779584
-36.974909 -84.323072 45.018703
-2.399545 -46.412829 38.952266
-3.735953 -35.695176 63.548505
-37.200160 -44.873410 11.340958
-10.766731 -48.951514 97.219180
-30.315245 -76.535132 12.338007
-14.840434 -62.632777 98.647121
-37.590838 -25.182443 15.375704
-25.090064 -11.558307 88.420119
-27.417114 -26.217700 4.997501
-14.489904 -27.306592 85.242566
-34.792236 -74.375705 47.831840
-42.742437 -76.901937 35.201208
-35.284994 8.728350 50.697515
-38.700540 7.239370 34.138152
-5.106520 -78.844618 44.950949
-3.310604 12.296781 49.034480
-35.882059 -42.023579 46.710452
-55.327709 -32.123085 45.073556
-55.275800 -59.231168 39.311582
-63.172225 -58.013829 48.369698
-6.078649 -2.514288 81.185660
-3.248061 -23.725086 17.991279
-5.266866 -63.579881 74.925462
-11.160444 -66.819689 23.140168
-36.497788 -40.575823 64.339994
-62.942463 -12.266571 17.408612
-3.146782 -35.767615 87.674775
-22.339307 -44.198298 12.328093
-55.653871 -16.562761 59.035178
-41.451641 -31.348281 22.462556
-39.943478 -48.101548 57.311010
-61.162208 -50.013771 18.272774
1.465342 -22.441881 45.742698
-4.273717 -14.914824 60.660734
-8.235161 -60.401723 40.984085
-4.608561 -54.135157 56.470979
-58.068315 -73.154154 50.312317
-49.656633 -18.248916 40.241259
-18.133394 -90.484509 68.643625
-12.871856 -93.890123 22.971671
-10.305628 41.791612 58.164322
-4.774881 43.424210 20.443738
-54.375590 -27.883027 3.607038
-26.765343 -46.061662 72.191032
-59.060091 -58.827280 6.185473
-37.199365 -56.999842 85.265827
-39.936058 2.785302 11.932733
-36.209749 -25.155378 83.615457
-47.643787 -0.730590 0.872376
-40.222851 -34.507627 83.322910
-42.179394 -50.565873 30.292202
-62.437336 -37.226245 46.005913
-18.077591 49.547848 38.921399
-22.497772 -95.351711 35.212459
-3.897759 -31.221065 30.985111
-11.117524 -14.752839 68.160151
-14.466653 -64.306480 27.671563
-7.656451 -55.638881 66.136427
-39.740622 -14.578468 70.698749
-36.838568 -14.702247 23.327733
-33.442614 -59.829481 69.380206
-61.590053 -69.342801 10.912315
-22.899292 -91.550833 7.808855
-16.288427 -69.881111 75.924420
-20.172884 -77.598804 56.859827
-19.912343 -103.640600 24.199244
-24.750042 30.865666 55.707645
-24.511566 37.955015 27.640971
-22.464943 0.239869 19.284283
-20.380085 2.310431 68.856497
-21.737798 -56.604579 16.607741
-10.792902 -49.283868 73.262805
-22.842058 -45.070586 22.671625
-4.692574 -24.279663 81.316402
-34.344618 -10.045377 55.184172
-31.418230 -9.281487 40.457590
-40.322143 -57.665982 53.741194
-56.248903 -67.824769 22.622239
-13.065574 -89.210694 40.688160
-5.424253 -84.951934 59.510468
-3.849164 27.178771 31.453276
-5.478286 24.658671 51.795414
-38.363245 -85.370013 5.669138
-25.147823 -65.989808 73.381470
-26.954724 -1.980515 20.628651
-31.284610 2.078466 68.758793
-22.417021 -20.671638 74.961721
-28.081096 -8.964405 7.996675
-25.154431 -34.989716 87.925612
-34.200737 -13.028377 -4.301110
-39.160909 39.570588 27.740381
-33.270823 27.217476 56.204171
-29.875807 -99.817342 19.217483
-26.441541 -78.432837 55.409859
-20.298012 -47.816624 84.338381
-44.845006 -32.843772 14.729946
-22.365100 -54.125438 92.686243
-42.080413 -58.574698 7.702487
-44.897799 -66.708128 47.214286
-49.652938 0.632405 36.021365
-14.293970 -84.746958 50.822854
-2.963813 29.401799 42.542208
-51.858286 -64.365086 54.765937
-57.025502 -65.516190 43.934604
-52.804154 -25.704317 44.170469
-43.515689 -29.047858 47.289420
-50.269873 -57.805775 57.279753
-54.105706 -65.218531 28.165265
-46.938500 -16.130585 50.647376
-35.995398 -19.480727 40.938495
-25.832047 -24.155006 93.228740
-27.079056 -24.912006 8.555082
-7.187369 -59.038642 93.278338
-36.764820 -60.641109 12.300327
-2.515522 -18.774967 33.359231
-9.195185 -4.902777 68.639712
-18.655740 -72.162953 29.807717
-9.520150 -61.735274 61.592390
-51.414284 -35.909247 8.718633
-23.021013 -52.653703 75.340009
-43.734379 -13.381961 -3.281319
-33.082635 -35.262891 90.731301
-48.364615 -19.639025 5.830966
-24.157936 -43.368559 82.044220
-36.556033 -4.301081 1.788711
-31.038131 -33.346451 77.468608
-7.105843 -36.595199 57.996841
-0.486514 -44.216773 47.044941
-7.108370 -70.381669 73.176436
-7.423134 -77.471781 28.620435
-4.853931 10.905282 78.147755
-4.836272 -7.018039 26.143956
-28.827925 -54.608780 20.668871
-7.255664 -49.470458 85.617338
-33.686828 -44.610916 16.970901
-10.204391 -25.712557 93.086700
-56.399429 -25.500839 23.522231
-50.556588 -37.402256 64.676393
-30.885607 -76.846127 72.595584
-45.716204 -91.373083 16.485521
-36.893831 11.572418 67.112074
-35.407660 12.223919 26.102465
-8.895592 -70.567929 54.795632
-17.631437 -83.641708 36.451050
-3.547806 15.785065 59.181890
-4.935826 13.679398 32.141323
-42.793400 -22.451238 46.944605
-57.420434 -11.995002 35.400535
-62.537071 -70.734027 38.439542
-54.552930 -67.196632 62.191873
-23.999739 -16.009688 5.347840
-20.754245 -22.781179 84.141895
-36.004911 -77.009612 5.389424
-16.381978 -59.067563 90.497758
-38.817613 -19.005911 13.734929
-21.541382 -12.379380 77.896723
-34.317294 -60.080458 5.808930
-14.294015 -54.309438 93.223776
-38.227940 3.502371 43.557535
-49.881828 0.453140 57.019424
-55.677604 -78.988241 32.468333
-40.743108 -69.095045 52.296810
-30.987957 -38.598120 77.600995
-54.747423 -11.362558 -2.901431
-49.731303 -73.607536 9.553689
-34.867531 -66.029644 76.103580
-36.589881 -7.779566 24.725144
-39.920288 -9.334499 73.700243
-47.469709 -0.013605 50.117436
-43.270379 1.420444 39.401436
-47.334902 -74.023885 46.888771
-43.941189 -72.319441 36.241359
-6.271703 -13.204265 64.343675
-2.474409 -26.348532 38.793135
-6.054266 -53.848777 62.496567
-8.990898 -64.145452 31.931493
-7.376953 1.148929 21.783133
-10.916181 16.619103 77.341080
-15.503753 -86.748295 16.852421
-7.795174 -73.522239 75.745238
-17.357302 -24.835428 94.259653
-29.444755 -33.172884 12.786690
-2.872450 -55.626126 92.992819
-32.501408 -55.669774 14.460861
-15.505779 -46.763937 22.263673
-6.736886 -30.159051 73.684075
-15.618904 -55.138292 23.685466
-14.102583 -43.106947 69.655328
-49.298424 -55.648282 33.327419
-66.305807 -47.603561 44.756374
-36.181068 -51.964072 43.103974
-54.858536 -36.467439 52.650821
-36.523233 -94.512487 41.658954
-36.126642 -91.903189 55.038178
-45.365025 26.792866 33.840949
-36.023263 25.773527 45.701761
-62.827674 -72.338849 31.122106
-40.519738 -67.651717 58.180227
-34.216773 -6.882964 46.251634
-43.329734 -7.740449 51.778484
-57.165675 -6.190907 4.592391
-38.691181 -39.111309 73.931823
-55.945741 -19.380360 7.839251
-32.583609 -45.723168 68.195325
-12.386729 49.297822 40.296652
-15.900088 -97.167890 41.388169
-23.582507 -94.326599 52.839667
-9.421700 -97.882330 31.205946
-14.515356 42.474174 48.249477
-7.756608 50.698142 31.378792
-25.464764 -71.695337 22.308713
-8.854230 -62.371562 67.392504
-2.417435 -28.709011 23.910698
-7.444442 -8.729551 75.922808
-7.580552 -98.799116 6.716584
-15.531861 -77.962149 79.684228
-14.429494 7.084917 21.968668
-22.339234 15.865374 78.287135
-36.508227 7.237736 59.188818
-32.701507 14.633627 38.340019
-29.882995 -70.049949 56.926526
-39.710721 -75.565663 28.690930
-55.628106 -40.547989 18.555633
-47.095115 -45.396047 65.612781
-51.284912 -24.480351 30.723366
-48.363692 -24.620030 58.848780
-49.844937 -9.307211 31.826475
-43.894287 -12.562601 38.096173
-52.523077 -74.781903 57.415779
-53.977544 -68.510716 43.810627
-58.029369 -51.959329 41.599296
-46.881947 -54.369598 41.277210
-50.053294 -39.828809 44.309296
-42.549657 -46.467457 45.874201
-44.023248 -78.328979 52.051597
[...]
POINT_DATA 40962
FIELD ScalarData 1
H 1 40962 float
0.278045
0.244970
0.097131
0.146651
-0.110928
-0.055791
0.027533
0.298834
0.051798
-0.006244
0.230476
-0.210952
0.207626
0.121886
0.044987
-0.159619
0.145675
-0.119302
-0.019656
0.123143
-0.063344
0.140553
0.236618
0.042433
0.086574
0.097708
-0.190246
0.095138
0.305641
-0.265099
-0.168498
-0.110178
0.150910
0.035581
-0.216725
0.144668
-0.133555
-0.062515
-0.023437
0.312446
0.236932
0.010775
-0.099256
0.411009
0.029526
-0.071727
-0.163973
-0.062296
-0.047663
0.077406
-0.056789
0.283422
-0.067227
0.096499
0.183440
-0.041853
-0.043513
0.265880
-0.202448
0.079815
0.134716
-0.268799
-0.031284
0.028162
0.169797
-0.167199
0.038560
-0.016102
0.025286
0.159825
-0.023727
-0.014757
0.289201
0.004532
0.054015
0.061186
0.215383
-0.159778
0.289508
-0.243031
-0.010853
0.200259
-0.121380
0.150315
-0.158827
0.245964
-0.052471
0.173080
0.080186
-0.315320
-0.250594
-0.142556
-0.053436
0.216643
0.264645
-0.079055
-0.080635
0.237444
-0.044976
0.133164
0.008085
0.074260
0.255272
0.038113
-0.172596
0.099998
-0.220328
0.082654
-0.136562
-0.082710
-0.085909
-0.123550
0.117306
-0.305939
-0.076422
0.355292
0.250450
-0.076493
0.195627
-0.279207
0.124875
0.099971
0.119671
-0.011954
-0.023192
0.234294
0.059368
0.092586
0.169460
0.094428
-0.168397
0.279057
-0.063510
0.006648
0.094508
-0.094712
-0.039611
0.109622
0.015761
-0.166770
0.029575
0.287959
-0.226577
-0.236386
-0.211263
-0.045183
0.113128
0.033296
-0.058903
-0.052507
-0.112078
0.008178
-0.088432
0.250642
-0.124217
-0.049928
-0.308922
-0.002877
-0.175395
0.225983
0.213732
0.030354
-0.193263
-0.130635
0.060607
-0.204182
-0.112155
0.047698
-0.178439
0.183976
0.202885
-0.066725
0.149520
0.179230
-0.040504
-0.311242
0.156409
-0.217148
-0.298306
0.333333
0.019485
0.157649
-0.142397
-0.211129
-0.159171
-0.032397
-0.165665
-0.243681
-0.090938
0.023302
0.191016
0.045174
-0.186442
-0.191899
0.001042
0.172060
0.151671
0.137067
-0.014111
-0.079861
0.048978
0.130184
-0.110380
0.039610
-0.190572
-0.039466
-0.289778
-0.293838
0.135593
-0.078932
0.012217
-0.195886
-0.173093
-0.151134
-0.071633
-0.031822
0.105260
0.023476
-0.125226
0.325618
0.125815
0.236570
-0.161897
-0.001424
0.313212
-0.100520
-0.233972
0.212568
0.294846
0.086752
0.019113
-0.022783
-0.085794
-0.234868
-0.239903
0.049405
0.329989
0.150927
-0.079539
0.224988
0.142296
-0.200192
-0.065666
0.195941
0.131185
0.007282
0.144002
-0.029009
-0.158430
0.178094
0.446718
-0.247043
-0.064513
-0.141751
-0.011881
0.167835
0.104935
0.136001
-0.193931
0.102886
0.028511
0.010006
0.142710
0.234427
0.122272
-0.052108
0.068678
0.013197
-0.043124
0.244660
-0.195888
-0.169729
0.136713
0.258495
0.111234
-0.220995
0.363413
0.138307
-0.123570
0.020060
0.187458
0.051455
-0.150265
-0.217868
-0.007679
-0.024580
0.159809
-0.117337
-0.162280
0.063125
-0.230303
0.004859
0.030178
0.004073
0.227385
0.136326
-0.182585
0.182776
-0.134923
-0.092967
-0.005426
-0.082069
-0.024310
0.026277
0.006145
-0.028419
0.275573
0.100597
0.182435
0.051432
0.245078
-0.063739
0.161135
0.008038
0.158689
0.206961
0.130746
-0.159997
0.199371
0.201112
0.030771
0.088477
-0.083175
-0.110393
0.030851
0.226948
0.296621
0.167558
-0.084245
0.191709
0.015820
0.123023
-0.085520
-0.143179
-0.047087
-0.158774
-0.237866
-0.080192
-0.071126
-0.006594
-0.102947
0.214230
0.038181
0.050832
-0.235723
-0.140781
-0.138282
0.036036
-0.169566
-0.113452
-0.170160
0.248078
0.066903
0.161164
0.007906
-0.152574
-0.149598
0.140817
-0.131051
-0.013359
0.089415
0.246747
0.229772
0.012985
0.198813
0.347210
-0.113585
-0.249239
0.024256
-0.126343
0.050826
-0.173981
-0.101430
0.130827
-0.027779
0.273692
-0.082107
-0.096977
-0.316654
-0.080617
0.044533
0.160059
-0.116250
-0.099950
-0.216088
-0.146051
-0.027430
-0.080327
0.127926
0.292343
0.161611
0.089760
0.021560
0.077601
0.228832
0.166944
-0.096743
0.345534
-0.074389
0.048311
0.063981
0.131764
-0.178860
-0.154309
-0.098496
-0.121935
-0.041120
-0.021414
0.011301
0.195517
-0.054722
-0.034008
0.183333
0.318334
0.161475
0.098478
0.090711
-0.014454
0.086253
-0.275504
0.244891
-0.046060
0.033602
-0.182624
0.133969
-0.141891
0.134383
0.018212
0.253846
0.095557
-0.099770
-0.277309
-0.193640
0.272438
-0.160097
0.290304
0.207873
-0.135868
0.098208
0.097948
0.091504
-0.174851
-0.219019
0.235041
0.084296
0.233982
-0.282598
0.080963
0.098718
0.295290
0.187754
0.160184
0.224650
-0.228043
-0.151369
-0.015704
0.122875
0.059153
-0.132677
0.103297
-0.223231
0.276383
-0.073482
0.297320
-0.266232
0.245977
-0.031496
0.181959
0.258734
-0.148996
0.001749
0.076812
0.059995
0.283266
0.184106
0.143485
0.140971
0.093141
0.162490
0.117061
-0.068168
-0.251228
-0.048609
-0.102859
0.359385
-0.213260
0.128202
-0.249593
0.216683
0.170758
-0.120672
0.007783
0.120017
0.005410
0.090291
-0.079350
0.198855
0.074423
-0.279808
-0.190409
0.179946
0.270535
0.090080
0.294549
-0.195732
0.106774
0.022395
0.168663
0.311983
0.020087
-0.296095
0.102548
-0.032263
0.089187
-0.245467
0.015666
0.217338
-0.154071
0.207266
-0.167432
-0.010437
-0.249591
0.232571
0.025834
-0.000123
0.180292
0.268805
0.044573
0.092898
0.098949
0.139240
-0.075042
-0.133461
-0.062424
0.267588
0.119156
-0.107416
-0.049307
-0.047621
-0.098898
0.085214
0.117452
-0.110435
-0.036943
-0.190660
-0.301657
0.046045
-0.206209
0.102105
-0.028480
0.086847
0.046990
0.242877
0.098393
0.014597
0.061785
-0.215109
0.141714
0.091048
-0.141179
0.206489
-0.127044
0.043590
0.209860
0.069128
-0.092289
-0.208322
-0.013358
0.048791
-0.188414
-0.235839
-0.000871
-0.123241
-0.165724
0.071902
0.099654
0.137311
-0.029409
0.049458
0.031225
-0.092618
-0.167102
0.001275
0.168839
-0.011801
0.154110
0.180543
-0.030891
0.064563
-0.057736
-0.035939
0.101441
-0.207276
0.062840
-0.088648
-0.129950
-0.088255
-0.052902
0.038116
0.048163
-0.193348
0.014066
-0.173352
0.036353
-0.048023
0.002547
0.042872
0.180335
-0.081439
-0.157048
-0.108153
-0.081379
0.195661
0.271977
0.337175
0.114678
0.124556
0.079478
-0.022915
-0.131230
-0.154431
0.270911
0.330136
0.115259
0.084154
0.028572
0.005514
-0.313650
-0.253293
0.291100
-0.251397
0.235563
0.036763
0.210058
0.126429
0.240428
-0.323296
0.270493
-0.173685
0.066428
-0.242940
0.053151
-0.272244
0.102871
0.109733
-0.133592
0.103265
0.091042
-0.123708
0.194609
0.146351
-0.005077
0.072969
-0.241629
0.010829
-0.130053
0.245121
0.157836
-0.073239
0.190294
-0.167227
0.309873
-0.267170
0.017678
-0.195294
-0.005181
0.287315
0.203901
0.074193
0.260735
-0.163707
-0.243724
0.220624
-0.166323
0.160101
0.270113
0.180050
0.219840
0.009073
-0.164661
-0.014979
0.140741
-0.163372
-0.148333
0.273320
0.182696
0.110665
0.273605
0.100259
0.184877
-0.285766
-0.159172
-0.186495
-0.242509
0.244752
-0.034530
0.239085
0.167206
-0.228552
0.002736
-0.124000
0.216032
-0.293767
0.272395
0.053172
0.008679
0.239900
0.035128
0.317308
0.160669
-0.207995
0.253689
-0.216317
0.061073
0.218229
-0.233867
0.086406
0.186136
0.275381
0.146887
0.154205
0.276666
-0.227136
0.264365
0.152017
-0.121222
-0.220306
0.251277
-0.017423
0.053412
0.277259
0.022111
-0.196961
0.258924
0.162354
-0.042404
0.089144
-0.164807
-0.178964
-0.060394
-0.171205
0.074882
-0.241751
-0.285081
-0.192456
-0.079719
-0.118643
-0.127081
-0.321404
-0.296474
-0.166123
0.327290
-0.274980
0.021784
0.134945
-0.279895
0.109546
0.318477
0.086372
0.128404
-0.105840
-0.209284
0.124954
-0.061545
-0.085045
0.082628
0.216513
-0.186207
-0.005457
0.245956
0.213627
-0.008102
-0.024857
0.127338
-0.273538
-0.151437
0.140625
0.052724
0.197822
0.139972
-0.285096
0.045517
0.184879
0.093188
0.175438
-0.150095
-0.033888
0.208526
0.043050
-0.148411
0.071168
-0.277643
-0.130621
-0.030016
-0.189559
0.096464
0.146558
-0.211383
0.197103
-0.254181
-0.213343
-0.028143
-0.224939
-0.329333
0.214224
-0.209023
0.378469
0.112034
0.287205
0.335454
0.031052
-0.038937
0.201116
-0.087064
0.104391
-0.097545
-0.194493
-0.041939
0.067870
0.014233
0.092716
0.264585
0.137718
0.238615
0.145965
0.007701
-0.338120
0.252570
0.102273
-0.100493
-0.196657
0.050932
-0.181541
0.082300
-0.264228
-0.214972
-0.185531
-0.137095
0.002896
0.103674
-0.166072
0.055271
-0.041298
0.330661
-0.276980
-0.162154
0.103209
-0.166935
-0.265915
-0.128591
0.180835
-0.020509
-0.072531
0.140162
-0.079918
-0.146009
0.185331
0.087455
-0.217055
-0.227094
0.256664
-0.078422
0.225622
0.170577
-0.143747
-0.117194
-0.079506
0.174068
0.585850
0.212083
-0.065812
0.074542
-0.138674
-0.065313
0.055539
0.192965
0.102653
0.237174
0.066646
0.188965
0.246962
0.238189
-0.227930
-0.370033
-0.042936
-0.024159
-0.164066
0.112460
0.181903
-0.241516
0.024806
-0.163430
-0.169344
0.132809
0.063956
0.114646
0.329738
-0.139953
-0.182445
0.178107
0.165443
0.002088
0.021872
0.066156
0.208725
0.040976
-0.086360
-0.305333
-0.174760
0.020228
0.267545
-0.181918
-0.210571
0.067350
-0.063386
0.190223
0.130627
0.241682
0.102815
0.146144
0.208635
-0.080279
-0.102530
-0.042931
-0.112998
-0.167488
-0.056231
0.250538
0.110367
-0.234832
0.055880
0.081236
-0.264411
-0.152558
0.080029
0.084928
-0.059784
0.273301
0.228095
-0.161397
-0.293055
-0.025773
-0.195507
0.116394
-0.360377
0.067238
0.192718
0.108422
0.015510
0.251690
0.120725
0.172783
-0.059042
-0.019502
-0.032461
0.086173
0.172129
-0.070348
0.250205
0.151985
-0.146517
0.175713
-0.107248
0.073595
0.302470
0.159088
0.120262
0.169088
-0.180426
-0.069566
0.211477
-0.066461
-0.328511
-0.112596
0.121238
0.108363
-0.245442
0.286758
0.088170
-0.179594
-0.186184
0.226438
-0.209925
-0.232749
0.160832
0.005381
-0.028298
0.118895
-0.175139
0.026705
0.250608
0.044819
0.236608
-0.361016
0.149795
0.129892
0.029782
-0.080320
0.106741
-0.082452
-0.229344
0.188314
-0.196708
0.275241
-0.291683
0.015545
0.106996
-0.106269
-0.021185
-0.207045
-0.066073
0.114825
-0.216094
-0.181963
-0.099191
-0.043347
0.045082
-0.060628
-0.073174
0.028501
-0.150339
-0.038797
-0.108489
-0.077672
0.282082
-0.126457
0.175290
-0.183000
0.080029
0.069292
-0.087377
0.025317
0.020838
-0.241095
-0.143189
0.077158
0.101040
-0.075093
-0.125132
0.099859
0.084290
-0.127121
0.241681
-0.138703
0.030639
-0.056426
-0.020731
0.128978
-0.012838
0.152887
0.079275
0.054723
0.130589
0.313935
0.073128
-0.269163
-0.180164
-0.037240
-0.109448
0.094376
0.033686
0.087947
-0.016194
0.053602
0.299178
0.163385
0.096825
-0.000513
0.220573
0.009679
0.015233
0.166529
-0.118296
0.029157
-0.170285
-0.142032
0.101438
-0.001903
-0.030283
0.118575
0.006212
-0.202028
-0.097549
0.105299
-0.035253
-0.134046
-0.068042
0.031238
-0.113695
-0.156047
0.264795
0.001527
0.183294
0.134803
-0.143822
-0.034399
-0.212937
-0.224115
0.251313
0.169215
-0.029516
0.153984
-0.010113
0.042501
0.205567
0.038859
-0.227389
0.126393
-0.005184
-0.257270
0.120918
0.198340
0.089407
0.273341
-0.125818
-0.067684
-0.199657
-0.172626
-0.187973
0.206138
-0.074107
-0.104084
0.183852
0.161491
-0.235659
-0.208980
0.066951
-0.024552
0.188167
-0.131656
0.141996
-0.025022
0.053455
-0.136282
-0.198743
0.016105
0.105504
0.289934
0.169958
0.253769
-0.005861
0.096949
-0.145988
-0.174523
0.228633
-0.056882
-0.062045
-0.130936
0.022203
0.000062
0.208840
0.075957
-0.130184
-0.123344
-0.072816
-0.120247
-0.031005
-0.106536
0.138325
0.169246
0.337497
-0.007421
0.065487
0.289113
0.054183
-0.152896
-0.059126
0.167199
-0.180021
0.143579
0.261764
-0.082533
0.207673
-0.018472
-0.138156
0.293585
0.035155
0.036189
-0.144878
0.236845
-0.098511
-0.128020
0.040973
0.074064
-0.328818
-0.231636
-0.112826
0.233474
0.159383
0.123177
-0.139333
-0.103805
0.228423
-0.042695
-0.032612
-0.032336
-0.219392
-0.096864
0.189601
0.195508
0.000074
-0.035856
-0.118647
0.235675
0.328173
-0.143365
-0.207379
-0.145384
-0.205632
-0.052334
0.100643
0.207231
-0.149039
-0.221990
-0.301989
0.025132
0.053784
0.049145
-0.031101
-0.179439
-0.200850
-0.176822
-0.108855
-0.096853
0.274041
-0.015399
-0.280139
0.069515
0.204471
0.039434
0.232870
-0.217436
-0.068921
0.172652
0.154665
0.311188
-0.116714
0.024862
-0.244663
0.053667
0.128250
-0.083545
0.014102
-0.298522
-0.162308
0.288426
0.227168
0.022343
-0.293618
0.326741
0.053013
0.051140
-0.161393
-0.182536
-0.188378
0.213157
-0.070347
-0.119786
-0.227548
0.078011
-0.136708
0.006118
-0.072273
-0.003728
0.016070
-0.035485
-0.108269
0.023908
0.057199
0.151444
-0.266539
-0.149400
0.205623
0.262045
0.151856
-0.022257
-0.185219
-0.023866
-0.106790
0.298997
0.380138
0.262068
-0.245509
0.011190
-0.221501
0.104493
0.012658
0.090711
0.318569
0.122080
-0.071098
-0.207056
0.082721
-0.158717
0.058438
0.198852
0.226508
0.068280
0.301058
0.151674
0.282070
-0.069581
-0.049323
0.023051
0.109268
0.282342
0.297320
0.033701
-0.064214
0.086519
0.226228
0.097229
0.278138
0.095519
-0.266187
0.280653
0.238433
0.239228
0.336277
0.324727
0.122550
-0.014203
-0.081853
0.137147
-0.166102
-0.258485
-0.062480
-0.034341
0.133857
-0.021915
0.184344
-0.156985
-0.218841
0.100985
0.311689
0.107814
-0.240151
0.151250
-0.096003
-0.049920
0.116379
0.127941
0.114071
0.002837
0.346344
-0.145566
0.224824
0.004428
-0.008644
-0.086457
0.059537
0.004886
0.246753
-0.129170
-0.122110
0.082269
0.111775
0.246814
-0.032523
0.116499
-0.186963
-0.196217
0.081859
0.139251
0.168735
0.181776
-0.142709
-0.080280
0.120537
0.074453
0.042443
0.214653
0.001177
0.091925
-0.167958
0.018463
-0.168265
-0.118544
0.048780
0.312323
-0.211342
0.110163
0.155446
-0.078449
-0.141617
0.051214
0.071202
-0.098973
0.082355
0.265543
-0.136735
0.102196
-0.145658
0.222116
0.002898
0.160067
0.262956
-0.071038
0.241207
0.203788
0.242159
0.069226
0.174896
0.345703
0.023750
0.293463
-0.046143
-0.119657
0.077656
0.068766
0.051585
-0.224790
-0.020406
0.036787
-0.204295
0.258112
-0.216900
0.301522
0.030133
0.201795
0.024779
0.218305
0.154242
0.127373
0.354343
0.035030
0.152853
0.118346
0.107636
0.055480
0.042941
-0.025141
-0.036965
0.146402
0.091054
-0.040237
0.100134
-0.280769
-0.259705
-0.116950
-0.101479
-0.143194
0.179632
-0.129970
0.044747
-0.076301
-0.049890
0.001599
0.258764
0.312928
0.324646
0.190773
-0.278761
-0.053986
-0.114370
0.025813
0.074589
0.278149
0.356872
0.010632
-0.134778
-0.035382
-0.030229
0.130552
-0.271786
-0.161040
0.006726
-0.214854
0.024840
0.042932
0.161532
0.346287
-0.144479
-0.033462
-0.039674
0.315687
0.047037
0.086989
-0.189397
0.274520
-0.055843
-0.008089
0.102920
0.083456
-0.128484
0.304408
-0.004184
-0.011310
0.018897
0.144898
0.091328
0.047566
0.035768
-0.355736
0.199231
0.095092
-0.258465
0.213138
-0.278980
0.262943
0.208700
-0.172997
0.164733
0.323981
-0.261270
0.067390
-0.131094
0.019152
-0.155903
0.010263
0.066928
0.238076
0.082566
-0.035641
-0.044996
0.117013
0.183395
-0.054548
-0.081786
-0.123076
-0.115977
0.220710
-0.043353
0.058791
-0.101789
0.547460
-0.277908
-0.126333
0.049004
0.293712
0.184916
0.104058
-0.091536
0.038198
0.091493
0.201921
0.169488
-0.007247
-0.075422
-0.179789
-0.003696
0.042806
0.004377
0.118182
0.034588
-0.148502
-0.021373
-0.235640
-0.119592
-0.022987
-0.145261
0.026360
-0.094392
0.084529
0.014166
0.170912
0.157177
-0.258861
0.306366
-0.233177
-0.015897
0.072389
-0.069745
-0.219395
0.208573
0.228450
-0.119251
0.145924
-0.070885
-0.066044
0.186542
0.165052
-0.243185
-0.066757
0.362199
0.132923
0.012312
0.051260
-0.068151
0.013874
-0.132256
0.135064
-0.012894
0.189900
0.263615
-0.081461
0.130778
-0.154879
0.041449
0.204933
0.127044
-0.125802
-0.326424
0.093057
0.124203
0.175810
-0.131675
0.217864
0.089964
0.003092
0.000366
-0.144640
0.038809
0.033603
0.100777
-0.185289
0.298156
-0.268459
0.245373
-0.275867
-0.181943
0.260704
-0.134815
0.217545
-0.012496
-0.259607
0.402412
0.087452
0.269748
0.005741
-0.153282
-0.144574
0.088323
-0.050323
-0.087904
-0.107060
0.195226
-0.135911
0.035045
-0.143363
0.064322
0.000349
-0.127156
0.039539
0.100561
-0.227951
-0.273190
-0.108736
0.131441
-0.221912
0.028669
0.246912
-0.072450
0.129699
0.113619
0.192153
0.118117
-0.158148
-0.054774
0.236827
-0.089033
-0.154105
0.220310
-0.224741
-0.061182
0.215180
0.142782
-0.066232
0.224387
-0.181866
0.229757
0.000703
0.341193
0.251913
-0.002152
0.150133
0.204597
0.237411
-0.023536
0.326842
0.163086
-0.175089
-0.120408
0.122788
0.271944
-0.157190
0.134877
-0.044339
0.033819
-0.104706
0.207594
-0.122577
0.330570
-0.114201
-0.004865
-0.320221
0.175323
0.168686
0.098113
-0.030873
0.204051
0.036830
-0.080541
0.151746
-0.210156
0.108495
0.080227
-0.095256
-0.182310
0.300676
0.016860
-0.259649
-0.095302
0.225186
0.169029
0.153163
0.156121
0.011297
-0.250934
-0.003722
0.209834
0.180642
0.116028
0.155099
-0.303330
0.069576
-0.036716
0.111097
-0.042936
0.072297
-0.180059
0.037418
-0.257489
-0.116379
0.100438
0.287375
0.152646
0.020786
-0.193165
0.165502
0.168452
-0.167379
0.317185
0.042935
0.152755
0.226562
0.314171
0.211657
0.095225
0.078757
-0.166592
-0.138509
-0.184186
0.018853
0.190962
-0.122269
0.234416
-0.038718
-0.011391
0.139422
-0.120736
-0.043757
0.193725
-0.239779
-0.151345
-0.076793
-0.074726
0.104301
-0.185272
-0.331763
0.276229
0.383238
-0.058113
0.098410
0.185695
0.008217
-0.249925
-0.050412
-0.094557
0.097622
-0.030099
-0.218487
0.040387
-0.362943
0.079227
0.164735
-0.221795
0.212740
-0.109847
-0.151100
-0.284580
-0.114720
0.163656
-0.154012
-0.034032
0.300603
0.236485
0.102755
0.012741
0.098808
-0.140154
0.144325
0.153989
0.103072
0.070013
0.127062
-0.128184
0.056953
-0.135254
0.172789
0.070471
0.192940
-0.016919
-0.041541
0.033493
-0.293126
-0.008486
-0.225154
0.268648
0.034171
-0.135434
-0.107602
-0.195490
0.217015
0.063467
-0.172600
-0.238140
0.300733
-0.233126
0.024897
0.043760
-0.204870
0.129088
0.231986
0.038434
-0.234854
0.228785
0.097690
0.173678
0.316142
0.285352
0.227376
0.053224
0.274869
0.045396
0.080401
0.208476
0.216250
0.118151
-0.022883
0.207182
0.059944
0.158813
0.213585
0.448262
0.021333
0.114466
0.031142
0.189023
0.275194
0.253183
0.299261
0.180462
0.314268
0.009366
-0.020316
-0.111536
0.032009
0.401898
0.327608
0.144059
-0.091763
0.133416
0.195646
-0.222230
-0.132845
0.245805
0.001777
0.066248
0.027826
0.188295
-0.062679
-0.049575
-0.199949
0.077320
0.217575
-0.002656
0.199033
-0.076943
-0.208738
-0.286819
-0.160403
0.338556
0.267558
-0.223780
0.047183
-0.272187
-0.087149
-0.128538
-0.032644
-0.198129
0.124878
0.430223
0.084662
0.140153
0.004816
-0.205560
0.105771
-0.259147
0.187830
-0.130174
-0.048548
0.309137
-0.032648
0.266458
-0.244748
-0.248216
0.072408
0.281505
0.338300
0.026823
-0.225781
-0.141257
-0.208083
0.040764
-0.115892
0.332455
-0.104477
-0.382245
0.103588
0.076871
0.061552
0.145900
0.111243
-0.256478
0.314062
0.029694
0.012546
0.005470
0.237523
0.180790
-0.263041
0.131134
-0.101640
-0.191255
-0.238544
0.041838
-0.093194
0.059317
-0.068884
-0.048981
0.060164
0.072282
0.081241
-0.026561
-0.096002
-0.336574
0.166779
0.027320
0.040397
-0.139370
-0.043275
-0.020718
-0.098202
-0.262637
0.027957
-0.129993
-0.069697
-0.231798
-0.223073
-0.158977
0.001905
-0.413633
-0.004315
0.216867
-0.190496
0.204004
0.199624
-0.190078
0.105054
-0.204554
0.153616
0.182281
-0.224913
-0.057599
0.123730
-0.242979
0.155870
0.159476
0.052931
0.302405
-0.042747
-0.278922
0.293788
-0.140380
0.012156
-0.170417
-0.058843
0.160996
-0.175159
0.011013
0.008963
-0.090966
0.087909
-0.007177
-0.034588
0.239648
0.266166
-0.223641
0.321457
0.141489
0.078315
0.115008
0.042299
0.100892
0.115810
-0.131742
0.060227
-0.059494
-0.232608
0.206407
-0.163809
-0.218294
-0.034744
-0.036314
-0.056355
-0.031683
0.341621
-0.213782
-0.143608
0.083680
0.240989
0.041334
0.305382
-0.227145
-0.218627
0.145690
0.266612
-0.091525
0.009574
-0.173239
0.048064
-0.033923
0.178730
-0.086302
-0.088102
0.011142
0.048820
-0.183818
0.177603
0.294759
-0.176770
-0.289171
-0.170077
-0.187445
-0.095966
-0.284550
0.109185
-0.128798
-0.288321
0.064110
0.181298
0.223460
-0.290282
-0.116201
0.106863
-0.136381
0.142803
-0.109643
0.038993
0.261035
0.075328
0.176137
0.056720
0.193603
0.098761
0.134922
0.145644
0.067797
0.122554
0.109269
0.191518
-0.197737
-0.205759
-0.090264
0.316569
-0.333845
0.008222
0.331392
0.367221
-0.017309
0.025367
-0.022048
-0.231162
-0.170554
0.064765
0.102360
0.101893
0.155911
-0.131478
-0.225996
-0.073791
0.136743
0.065470
0.112294
-0.228878
0.064885
-0.125950
-0.145238
-0.118724
-0.062345
-0.093593
0.150385
-0.071398
0.047793
-0.061820
-0.123868
0.088022
-0.035308
0.184859
-0.154930