# vtk DataFile Version 3.0
vtk output
ASCII
DATASET POLYDATA
POINTS 10242 float
-50.753486 6.267163 46.221505
-7.497076 40.892369 42.031151
-47.280143 -79.653669 42.687133
-11.105685 -97.801833 50.496579
-20.366676 -56.292671 83.500763
-25.067658 -14.586449 73.185563
-42.005446 -72.000828 2.539231
-35.326060 -14.979581 13.913846
-11.782154 -50.078007 27.304015
-14.054382 -34.641638 66.002948
-60.822881 -33.972139 34.320344
-56.761560 -37.820055 60.091083
-26.445348 -41.121593 94.877994
-40.511223 -21.452923 3.948889
-33.165425 35.797997 39.918572
-29.971894 -86.612332 32.665319
-48.861875 -83.821846 26.882971
-29.501525 -69.837921 66.314233
-26.528706 13.773122 35.410074
-45.735202 4.463792 65.069170
-63.492461 -36.374594 9.369124
-44.436012 -50.552463 80.304494
-51.720443 -5.179784 22.080158
-51.376708 -22.969438 72.646172
-56.516165 -59.609272 32.349313
-57.642803 -58.399995 65.462381
-35.817127 -25.535946 43.983679
-56.268913 -11.864905 43.369031
-3.381940 -40.966674 53.491729
-51.249181 -48.660256 43.228351
-22.310161 -76.284109 33.007517
-12.349866 -66.545558 59.071063
0.038681 -2.249193 35.440713
-8.452767 4.297016 62.983452
-27.393410 -69.926964 15.063210
-7.158597 -60.141791 84.430362
-36.026487 -38.377420 20.927967
-7.789477 -15.606344 92.719661
-12.427599 -100.329299 5.568438
-16.512716 -85.068235 79.505680
-14.989296 22.247974 17.489737
-22.681048 22.600336 68.001932
-17.038582 -52.265487 81.865665
-44.497855 -45.548027 8.574445
-32.470834 13.525859 22.604027
-29.117291 11.345371 57.653398
-36.394777 -96.606888 5.665244
-29.349947 -82.899888 72.954582
-23.864035 -31.258515 74.608371
-28.530234 -4.751448 -0.359761
-49.773660 -68.378123 38.181897
-47.202706 -75.438043 61.165659
-40.542316 -5.062972 40.096950
-49.908824 -4.775526 44.382600
-5.897278 20.041624 69.761014
-5.773806 12.788902 22.002028
-7.971948 -76.828067 67.044627
-7.333235 -81.450526 25.320622
-53.396453 -30.370648 21.835345
-54.031056 -41.346796 73.159901
-54.755218 -21.328398 29.154089
-42.371141 -33.386924 56.685860
-40.642802 -75.944873 15.119012
-33.897926 -69.383664 80.890765
-34.041024 -84.888441 57.679566
-35.705063 -90.640810 27.986831
-40.392433 28.144286 50.481542
-43.248739 28.112741 26.310779
-27.858144 -1.729056 25.443269
-32.998167 1.447905 77.524872
-16.834481 4.712256 81.948838
-14.036233 -11.776424 22.138010
-6.201882 -78.410453 86.294479
-6.111967 -89.662769 5.917786
-39.561478 -40.849672 32.162800
-56.680902 -24.135596 52.749458
-67.964122 -43.593597 30.637361
-53.990292 -44.703343 51.908901
-45.184670 26.250513 39.179106
-37.825755 -88.068869 46.343934
-2.365088 -46.882895 39.168443
-3.481279 -34.896591 65.327021
-37.605068 -44.751070 13.369206
-10.399611 -48.691384 95.878689
-30.320239 -75.451715 11.117828
-14.034040 -62.700341 97.560353
-36.921183 -24.503542 15.610363
-23.001725 -12.867618 88.627458
-25.786426 -25.822028 7.776114
-16.101357 -30.339869 86.595228
-36.105015 -75.142398 49.694199
-41.596270 -77.435177 33.893850
-35.979040 9.797706 51.184593
-39.909549 8.025139 35.368144
-6.685898 -76.232959 46.381410
-5.431607 11.811665 48.830237
-35.403861 -42.183620 46.405019
-54.384794 -33.807754 46.417673
-54.751676 -59.821944 40.175224
-61.991628 -57.966040 49.191471
-5.757251 -1.421232 82.388918
-2.459444 -23.094072 17.258022
-9.717007 -63.758409 74.799428
-10.539900 -68.392534 21.367268
-36.636266 -39.867440 65.334627
-62.997400 -12.115605 16.371001
-4.943141 -37.062310 88.939944
-21.991493 -44.319711 12.753675
-55.807475 -16.659149 59.861796
-41.358016 -31.494177 23.593622
-39.565663 -48.779789 58.654442
-63.800706 -49.117891 19.517918
-0.763112 -23.268818 45.208108
-3.078342 -15.284683 60.759667
-8.072047 -61.887060 39.300370
-5.996131 -53.119710 55.804391
-57.138813 -73.637336 49.988236
-48.811098 -19.291152 38.351582
-16.001807 -90.213617 66.586793
-7.716390 -95.074250 23.750520
-10.028877 41.276688 57.763824
-4.273554 43.705568 21.485758
-53.987947 -28.170935 1.889616
-25.357008 -46.078175 72.652961
-57.726933 -58.866446 2.656624
-35.872129 -56.082155 84.493637
-39.794822 2.581234 10.196207
-35.637214 -23.833073 82.277274
-47.017207 -2.061737 0.847719
-40.224782 -35.447670 82.609854
-43.659706 -50.147702 31.274620
-61.702729 -38.724863 46.692721
-20.107812 49.995508 38.023695
-20.647593 -95.169397 36.029851
-4.604799 -31.241682 31.665404
-11.508008 -14.162235 70.606980
-16.950957 -65.580303 27.775239
-7.510541 -56.071786 64.217506
-38.762599 -15.977076 70.460423
-39.046189 -16.714623 21.218874
-34.071256 -59.541241 69.818433
-59.387557 -69.609389 9.644364
-21.323241 -90.306584 5.901303
-17.710224 -69.734277 76.795857
-20.784312 -76.389359 57.587071
-19.063377 -104.079430 23.830717
-24.883704 29.744601 56.134502
-25.039511 38.282306 26.084342
-21.208096 -1.735813 18.874054
-20.677595 4.186269 68.968318
-19.309449 -56.686050 16.446776
-12.084080 -49.541474 73.932116
-22.751191 -45.627871 23.570955
-5.655860 -24.552344 79.686248
-34.804741 -10.694074 54.704060
-31.240810 -10.130138 40.588785
-40.940098 -58.767624 54.895257
-57.609399 -68.459285 23.050806
-13.641215 -86.299240 42.354646
-7.915798 -83.181256 56.897276
-6.414108 26.367717 31.898293
-7.351296 25.117198 53.463722
-40.313573 -86.309092 6.082411
-24.401557 -67.583959 74.370498
-25.908219 -1.565818 19.459357
-28.658113 1.857029 71.718042
-22.210649 -21.348676 74.929264
-28.103326 -8.458861 5.468767
-25.066545 -35.044342 89.303795
-35.765848 -13.015325 -3.582075
-35.551897 36.356079 27.363297
-31.888387 27.087234 56.226933
-30.277529 -96.934537 17.875389
-27.616973 -77.264027 55.599919
-20.656490 -49.795248 83.580109
-44.427960 -33.334947 11.356593
-20.829813 -54.162329 91.158156
-42.359182 -57.874851 6.168233
-44.536331 -66.908137 45.856272
-47.125072 -1.843211 36.313766
-13.194302 -86.655866 50.680803
-6.379623 28.118643 42.444415
-53.957897 -64.335725 53.721380
-56.973971 -65.908974 45.447768
-52.410372 -26.334844 41.675710
-43.835700 -29.503433 47.500312
-48.896423 -59.244991 59.750857
-56.767578 -63.653825 27.038058
-45.507718 -13.013955 50.564990
-36.804636 -19.277499 41.647767
-25.036436 -22.426642 92.465960
-26.869291 -25.675982 8.108102
-5.513058 -58.470759 94.894920
-33.054199 -59.487689 10.631721
-2.216407 -18.159230 32.813601
-9.219666 -4.292244 66.943602
-19.415957 -74.044436 28.222994
-10.601007 -63.651065 63.175779
-50.098688 -36.024380 11.057134
-22.290882 -51.598640 76.635420
-42.357415 -11.643513 -3.630066
-31.584494 -35.050002 90.513052
-50.375303 -19.412056 4.135859
-26.807425 -43.732430 80.022186
-36.231114 -3.489230 -0.663727
-31.722150 -32.344833 76.123282
-6.076480 -36.859931 58.072237
1.687563 -44.131729 47.516837
-4.506841 -70.870256 73.112808
-6.426994 -75.505027 27.749644
-4.231605 11.051022 78.202900
-3.901119 -5.623019 23.644396
-29.599398 -54.044935 18.247216
-4.567143 -49.988854 85.418688
-33.529798 -43.911755 17.385248
-9.496066 -25.074067 93.517136
-56.532668 -26.506881 23.050019
-50.326289 -36.896000 64.241424
-32.984392 -78.094236 73.139629
-43.611710 -90.790583 17.346198
-37.759863 11.340970 66.506125
-31.529555 11.993509 25.080878
-7.081332 -72.118738 56.447396
-20.241853 -80.532052 38.634504
-6.698178 15.226832 57.956184
-2.431297 13.701494 31.754498
-40.409486 -21.770583 46.333350
-55.868713 -13.225953 35.940707
-62.898075 -69.370351 38.996498
-53.789717 -67.792688 62.288216
-26.610251 -16.359683 5.734870
-22.454611 -22.365748 83.218643
-35.117651 -77.397338 3.694191
-17.403329 -57.974125 92.102646
-35.753802 -18.852839 13.495168
-20.260625 -12.801982 78.031121
-35.708073 -60.578489 6.714861
-13.595280 -55.402251 92.158253
-38.435702 5.504398 43.356823
-49.616461 0.601234 57.167788
-55.876009 -79.658961 33.515298
-40.803542 -71.821698 53.190151
-31.137062 -39.228047 77.618840
-52.381084 -11.288400 -2.438106
-49.389239 -73.771510 11.630075
-36.542455 -66.093626 76.446153
-36.556830 -7.660891 23.118802
-40.360806 -8.663885 73.507379
-50.397676 1.156187 50.200426
-43.706644 2.461314 40.633900
-43.689987 -72.428211 48.422119
-45.292111 -73.174071 36.743147
-4.944560 -13.942419 65.439255
-2.087826 -27.183970 38.627715
-5.517021 -53.726890 62.038583
-8.721870 -61.484107 33.709593
-7.797555 1.674214 21.819656
-9.322922 15.842488 76.286766
-12.300918 -86.879592 16.212512
-8.904544 -73.584627 74.963513
-18.276214 -24.678298 95.385824
-29.776092 -33.124637 12.290538
-3.070126 -56.805512 93.752861
-33.756490 -56.527935 14.028119
-15.880476 -46.189819 24.251086
-6.258786 -30.204082 74.822777
-16.094693 -54.994734 23.697953
-14.672551 -42.984448 68.691677
-48.868575 -55.250633 33.064168
-65.861578 -47.700783 43.583523
-36.067339 -51.033390 42.727496
-53.735668 -35.540694 50.263145
-35.491794 -93.472245 42.077250
-33.221252 -91.112235 55.520547
-44.142117 25.902045 33.613950
-37.908483 26.730233 46.230247
-61.077481 -73.899745 31.040135
-41.006532 -65.797871 57.277879
-32.735611 -8.094128 44.821434
-44.890088 -10.061214 50.942180
-54.813161 -5.324684 6.081987
-37.537908 -39.539347 74.070694
-57.479600 -19.824210 6.503711
-34.448961 -45.029703 68.468721
-9.513766 49.712338 41.276911
-14.912970 -97.911669 41.233505
-25.039151 -94.228693 54.041382
-10.728461 -98.482938 30.989427
-16.819326 46.277180 49.267006
-8.124231 50.686265 31.254147
-23.461683 -70.854564 22.499263
-10.092341 -61.219306 66.466133
-3.091894 -28.995534 22.668884
-8.397907 -8.676368 73.955046
-9.935815 -96.964402 6.584255
-16.735829 -77.608359 80.191624
-14.427532 6.802854 20.815141
-22.671785 15.848623 76.902467
-39.270442 7.346627 58.511538
-31.193608 14.387756 38.319469
-28.493353 -68.410204 55.127200
-42.051503 -75.849082 30.780098
-55.203143 -39.905287 19.860478
-45.675786 -46.426873 63.501757
-54.571313 -24.781429 30.317326
-49.234380 -24.750276 58.008835
-50.848331 -7.365119 33.770915
-46.655800 -11.678604 38.491113
-52.849959 -74.730853 59.074530
-53.728181 -69.013377 42.246423
-58.015346 -50.741625 43.162072
-47.541933 -55.060486 40.134818
-49.793981 -39.920208 45.250718
-41.715177 -47.496119 45.661516
-44.906854 -78.341573 49.406773
[...]
POINT_DATA 10242
FIELD ScalarData 1
H 1 10242 float
0.057029
0.027345
0.100829
0.142033
-0.079841
-0.107635
0.148014
-0.105256
-0.019475
-0.187166
0.040479
-0.016756
0.223101
0.030302
0.109702
-0.125007
0.202696
-0.070759
-0.103740
0.080292
0.032464
0.160262
0.102013
0.165454
-0.100297
0.115918
-0.040585
0.033134
-0.010050
0.053044
-0.131322
-0.087489
-0.019365
0.008270
-0.018558
-0.016348
-0.105838
0.006077
0.096869
0.189285
0.106449
0.068710
-0.082181
-0.017986
0.040650
-0.116602
0.110961
0.028394
-0.095746
0.167353
-0.018417
0.246785
0.128685
0.082699
0.076970
0.113763
0.038936
-0.002394
-0.120982
0.149766
-0.004133
-0.095304
-0.120462
0.126920
0.190236
0.021074
0.165860
0.073378
-0.039497
0.054922
0.022037
-0.062432
0.164356
0.073939
0.006696
0.022849
0.189560
-0.150373
0.057541
-0.021522
-0.009799
0.207466
-0.039235
0.080661
-0.106878
0.113009
-0.046088
0.098353
0.061228
-0.050234
-0.099894
-0.089673
-0.130476
0.069971
0.074401
-0.084601
-0.100287
0.038436
-0.082369
0.103050
0.060966
0.128287
-0.055747
0.058366
-0.079313
0.196706
0.092453
0.227122
0.090252
-0.099608
-0.106816
0.105326
-0.010509
-0.044308
-0.050939
0.064265
0.139578
0.063133
0.208469
-0.033679
0.170531
0.044000
0.138896
-0.097192
0.138994
0.083542
0.079719
0.042002
0.062085
0.129683
-0.127446
0.113019
0.004574
0.026157
-0.044708
-0.068551
0.044070
0.035726
0.025280
-0.028713
-0.029741
0.129860
-0.145318
-0.100721
-0.174929
0.052165
0.092247
0.098569
0.146406
-0.130701
0.195992
0.029419
-0.210824
0.020141
-0.149630
-0.134949
-0.089217
0.060783
-0.059356
0.047702
0.053011
0.044549
0.050745
-0.052557
0.064655
0.085127
-0.161037
0.107916
0.012484
0.087831
0.027354
0.016418
0.065099
-0.095270
0.068873
-0.077993
0.104888
0.117337
-0.135980
0.160390
0.036258
0.075416
-0.074277
0.033749
0.115593
-0.003261
-0.117099
-0.008275
-0.086442
-0.009458
0.121097
0.091039
0.111504
0.007841
-0.019245
-0.003605
-0.018381
0.027888
-0.113670
-0.136303
0.041369
0.067800
0.017877
-0.065807
0.019207
-0.047624
-0.195775
0.099591
0.169732
0.041503
0.142333
0.179969
-0.129815
-0.000767
-0.090896
0.090881
0.001788
0.017178
0.082113
0.088155
0.066670
0.038506
0.073313
-0.049102
-0.000035
0.096050
-0.115681
0.146986
0.230006
0.103721
-0.011505
-0.011296
0.109167
-0.007286
-0.115952
-0.084484
0.090708
0.002911
0.050353
0.177155
0.200506
0.085333
-0.022443
0.108080
0.053608
0.106195
0.141520
0.066082
0.032197
0.043492
-0.018522
-0.071796
0.079858
-0.024409
0.078054
0.151212
0.099975
0.007373
-0.072571
0.018359
0.058134
0.047787
0.140871
0.063902
-0.059592
0.167421
0.007704
-0.065768
-0.063213
0.268693
-0.129882
-0.115089
0.083203
0.125844
0.050210
0.059588
0.290964
0.049927
-0.149974
0.008139
0.073360
0.033335
-0.023596
-0.086671
0.107047
0.014584
0.130583
-0.001300
0.111155
0.063890
-0.111748
0.063826
0.049775
-0.028846
0.005774
0.053248
-0.037749
0.162375
-0.024143
-0.071291
-0.212906
-0.055676
-0.090420
-0.137319
0.090638
-0.007181
0.180648
0.113008
0.128111
-0.002028
0.103734
0.065065
0.056620
-0.039372
0.056038
0.177923
0.099202
0.036859
0.073923
0.091566
-0.036147
0.022123
-0.160823
-0.034106
0.134983
0.127820
0.034966
0.091864
0.099942
-0.011794
-0.085907
-0.058860
-0.097809
-0.046423
0.015194
0.060712
-0.109270
-0.022183
0.041573
-0.026571
0.139639
0.140009
0.075434
0.026252
-0.116549
-0.011274
-0.045453
-0.126582
-0.173042
-0.160303
-0.069280
0.070946
-0.028835
0.025338
-0.100267
0.015941
0.043976
-0.163884
0.095115
0.058762
0.128937
-0.014690
0.141880
0.069634
-0.029616
0.093436
-0.130698
-0.125909
-0.075717
-0.048368
-0.070388
-0.136954
0.085731
0.062497
0.117833
0.202894
-0.083894
-0.084311
-0.054337
0.034135
0.021018
-0.007970
-0.081823
0.002694
-0.025783
-0.126984
0.081623
-0.150943
-0.100703
0.133387
0.017528
0.010716
0.168256
0.067983
0.164554
-0.011813
0.099056
0.112846
0.111457
-0.090039
-0.100644
0.136916
0.024085
-0.020710
-0.134438
0.038849
-0.213814
0.058729
-0.071870
0.134477
-0.155707
-0.039859
-0.012117
-0.003217
0.055135
0.138364
0.159296
0.048241
0.058836
-0.093743
0.118454
0.039583
0.092576
-0.075462
0.083440
-0.100846
0.187723
0.158125
0.186117
0.082293
-0.113621
-0.060858
-0.134360
0.107595
-0.065389
0.101490
0.156662
0.040933
0.000857
0.029194
0.162125
0.105047
-0.111454
0.180029
0.145547
0.169228
0.030128
0.031156
0.067416
0.135372
0.061948
0.106619
0.076336
-0.068658
0.004701
-0.037663
-0.050262
-0.023605
-0.027592
0.027034
-0.028763
0.094627
-0.009823
0.059073
0.075941
-0.007448
0.114308
0.142151
0.228749
-0.093515
0.115276
0.160819
0.072416
0.185554
0.072066
0.025105
0.038004
0.139994
0.041489
0.133570
-0.022866
-0.235436
-0.009357
-0.137442
0.105169
-0.135715
0.199445
-0.009469
0.041186
0.069899
0.033057
0.066800
-0.062721
-0.059681
-0.103542
-0.132709
0.092934
-0.101988
-0.054229
-0.056369
0.012790
0.096510
-0.063324
0.103497
0.138318
-0.047305
0.047906
0.009846
0.067809
0.093892
-0.154735
-0.086556
-0.082126
0.074380
0.010446
0.037246
0.162813
-0.082688
0.056096
-0.052633
0.099423
0.055826
0.002710
0.071895
0.141281
0.071578
0.162163
0.149485
0.176505
0.141085
-0.092195
-0.062501
-0.115670
-0.095603
0.050716
0.073308
-0.067460
0.127877
0.154566
0.132705
0.134064
-0.023229
-0.142147
0.056643
0.151055
-0.031965
0.013904
-0.064258
0.066890
0.121467
0.018896
-0.005040
-0.032477
0.077611
0.001383
0.082225
0.090502
-0.135927
0.227409
0.123898
0.051153
0.075967
0.109873
0.077612
0.054836
-0.024667
-0.031658
0.143295
0.041609
-0.138658
0.049973
0.115725
0.017520
-0.050685
0.010573
0.064661
0.096459
0.172350
0.004591
0.103617
-0.097946
-0.143682
-0.039577
0.036001
-0.015514
-0.065533
0.150529
-0.080166
-0.031263
0.058641
-0.000560
0.148973
-0.128510
0.063924
0.074283
0.003732
-0.055755
-0.025236
0.107015
-0.090144
-0.089620
-0.206516
0.077407
0.086082
-0.091280
-0.065841
-0.102263
0.147773
0.092448
-0.056747
-0.090006
-0.145627
0.038371
0.074652
0.109118
0.201131
0.039923
-0.107992
0.174726
-0.198996
-0.010945
-0.038904
0.088231
0.036793
0.036578
0.055947
-0.088909
0.037730
0.089753
0.024742
-0.076769
0.139627
0.123612
0.174796
0.011496
0.065575
0.018246
-0.045140
0.014576
0.160633
0.017451
0.068955
-0.081946
-0.061828
0.120877
-0.049788
-0.138207
-0.011914
-0.031590
0.213112
-0.079310
0.074022
0.043076
-0.118296
0.032704
0.053669
0.076988
0.120498
-0.110469
0.182000
-0.142568
0.176802
0.038910
-0.112568
0.034749
0.083598
0.068541
0.120104
0.039895
0.155078
-0.072074
-0.077722
0.055742
-0.098248
-0.023572
0.239025
0.092771
0.023000
-0.008214
0.005998
-0.108941
0.143396
-0.084515
-0.082200
0.232029
0.233119
0.009354
0.116760
-0.033011
0.040645
0.090977
-0.140711
-0.078199
-0.075557
0.077631
0.063275
0.242389
0.079350
-0.032042
0.138779
-0.012559
-0.056541
0.054181
0.090645
-0.040020
0.044457
0.120906
-0.046502
0.150545
0.038459
-0.095536
0.055827
-0.114510
0.160383
0.053544
-0.169267
0.102615
0.050666
0.060106
0.000725
0.098225
0.164573
0.060756
0.087634
0.046819
0.057956
0.018385
0.038776
-0.234785
-0.041507
0.127165
0.082233
-0.114278
0.008646
0.006455
0.102295
0.101401
-0.111680
-0.137089
-0.043961
-0.166121
0.124646
0.077465
-0.010307
0.087828
-0.093164
-0.014405
0.102746
-0.093965
-0.064066
0.011549
-0.031477
0.001679
0.038831
0.071811
-0.143253
0.061098
0.091880
0.101294
0.071588
0.083014
0.052020
0.169202
-0.025472
-0.011189
0.024276
0.183954
-0.159193
0.114453
0.230237
0.221388
-0.068434
0.104650
-0.005887
0.077924
0.006340
0.059227
0.035343
0.110052
0.089753
0.005815
-0.025251
0.043002
-0.031398
-0.066257
0.057301
-0.035356
0.188919
0.116138
-0.007766
0.096488
-0.041061
-0.128414
-0.001432
-0.066343
0.089621
0.173395
-0.096787
0.183886
-0.127058
-0.010113
0.105230
-0.070986
-0.078375
0.149565
-0.109749
0.101110
0.017819
0.109432
0.088057
0.041756
-0.143854
0.023097
-0.014657
0.099383
0.021957
-0.009630
-0.030985
0.043033
0.001272
0.094804
-0.020235
0.113056
0.120770
0.021328
0.131682
-0.129529
0.030972
0.202692
0.063758
-0.175676
-0.118805
-0.051899
0.202781
-0.050737
-0.184708
-0.176027
0.008575
-0.013364
-0.056661
-0.093693
0.009630
-0.113323
0.044825
0.004203
-0.053314
0.074521
0.068692
0.061292
-0.049543
0.078548
-0.082137
-0.021106
-0.014356
-0.108748
-0.034272
0.025062
0.121213
-0.265425
-0.127406
0.165952
0.044825
0.035327
0.071064
-0.081895
-0.173554
0.080215
0.073922
0.083124
0.061407
-0.001953
0.076562
-0.000713
-0.008075
-0.054462
0.138582
0.133773
0.128626
0.083317
0.143641
0.208889
0.155765
-0.008786
-0.020699
0.057624
0.006898
-0.170034
-0.055947
0.043008
-0.133318
0.024746
-0.065746
-0.086961
0.086042
0.124989
0.057241
0.136400
0.077377
-0.052033
-0.035373
0.034418
-0.003960
-0.075701
0.018599
0.060935
-0.050221
0.073329
0.030719
-0.061393
0.004315
-0.018410
-0.121901
-0.074144
0.016096
0.098359
0.023580
0.082564
0.036294
0.206316
0.069915
0.125166
-0.116049
0.006167
0.048870
0.147779
0.008533
0.178205
0.152381
0.059549
0.034364
0.065006
0.011849
-0.032892
0.033957
0.031147
0.065368
-0.109022
0.200345
0.053293
-0.061653
-0.160103
-0.106585
-0.040566
-0.003827
-0.068265
0.089936
-0.010637
0.052002
-0.006812
0.143140
0.005098
0.134345
-0.017318
0.063910
0.003254
0.014002
-0.016090
0.109054
0.115301
0.201348
-0.029152
0.100444
-0.060729
0.107188
0.126296
0.216060
0.142528
0.114760
-0.066300
-0.092632
0.059828
-0.104519
-0.171803
-0.024186
0.140641
0.020843
-0.041983
0.180777
0.169193
-0.066858
0.139025
0.110631
0.107689
-0.006794
0.054202
0.158792
0.005731
0.066875
0.080399
0.032731
0.023990
-0.009149
-0.034678
0.006898
0.144317
-0.048640
0.033458
-0.031085
0.021963
-0.070688
-0.148725
-0.118291
-0.137362
0.132664
-0.004401
-0.102022
-0.111205
-0.031113
-0.142334
-0.133071
-0.086527
0.005954
0.004861
-0.062768
-0.057758
0.001822
0.001364
-0.005874
-0.163295
0.204727
-0.009996
0.055081
-0.041263
0.042261
0.071551
-0.074843
0.131737
0.093636
0.113011
-0.017387
-0.043299
0.107375
0.021030
-0.032878
-0.048176
-0.089292
0.060841
0.167949
-0.100967
0.089011
0.139137
-0.181876
0.146688
0.189688
0.113312
-0.065463
0.054687
0.112616
0.028489
0.114823
0.039549
0.131113
0.097988
0.170737
-0.081219
-0.199131
-0.085926
0.031236
-0.079867
0.026223
0.063469
0.124093
-0.022937
0.094763
0.116545
0.149145
0.027810
-0.129737
-0.009668
0.071885
-0.055652
0.052520
0.128678
0.029736
-0.022252
-0.090959
0.049920
-0.098541
0.033677
0.074990
-0.050741
-0.012688
0.105846
-0.035358
0.064471
0.049444
0.098574
0.083692
-0.088034
0.019067
0.146155
-0.060520
0.145878
0.126836
-0.068179
-0.078648
-0.118297
-0.144177
0.196066
0.116163
0.073118
-0.014882
0.096804
0.077849
0.248165
-0.093759
-0.042083
-0.003453
0.058254
0.126192
0.079304
0.000834
-0.027920
-0.003733
-0.150201
0.052957
-0.211422
-0.034709
0.068575
0.187215
0.018552
-0.140037
0.074236
0.012437
-0.121654
-0.023680
-0.014298
-0.161238
0.112918
0.032076
0.061150
-0.082732
0.047150
-0.057539
-0.029343
-0.091581
0.080614
0.018346
0.153510
0.075027
0.110780
0.105068
-0.083010
0.024752
0.216433
-0.044018
-0.073866
-0.146160
0.017717
0.027491
0.187636
0.111406
0.017985
0.078862
-0.117972
-0.001780
0.070085
0.133138
0.136905
0.089108
0.099109
0.165176
0.116417
0.065208
-0.019057
-0.014987
-0.072034
0.064984
0.053588
0.068758
0.089513
0.060985
0.113540
0.113868
0.050117
0.183841
-0.083895
0.029898
-0.051162
-0.104441
-0.095373
-0.075969
0.060883
0.050028
0.002644
-0.060055
0.116618
-0.036241
0.086217
0.091423
-0.107521
-0.132583
0.138986
-0.115441
-0.225472
-0.010771
-0.190423
-0.024537
0.179621
0.149971
0.004146
-0.038131
-0.018762
0.152233
0.062083
-0.102738
-0.080374
-0.194168
-0.104673
-0.038096
0.194466
0.011647
-0.175605
-0.049717
-0.006913
0.060829
0.125509
0.009544
-0.069969
-0.073856
-0.172696
-0.224551
0.106376
-0.040608
0.010300
0.110793
-0.078042
0.133701
0.027654
0.055739
0.096758
0.009474
0.034375
0.134344
0.006973
0.123084
-0.069835
0.053982
-0.030571
0.044220
0.104828
-0.047130
0.044110
0.009468
-0.063827
0.176284
0.061764
-0.144253
0.093713
0.182858
0.128177
0.110385
0.122575
-0.019690
0.087140
0.084482
-0.027238
0.049302
-0.101552
0.198032
0.130903
0.115961
0.140212
-0.018263
-0.025407
0.027444
-0.183095
0.110979
0.024384
0.131790
-0.049114
-0.097428
-0.014768
0.147324
0.113352
-0.073103
-0.041512
0.007529
-0.059888
0.081216
-0.061496
0.074336
0.018327
0.089672
0.027621
0.017719
0.075979
0.129048
0.136325
-0.165756
-0.054102
-0.166594
0.161648
-0.073829
-0.087583
0.090226
0.196642
0.177419
-0.011219
0.229421
0.050879
-0.146698
-0.013592
0.061224
0.175801
0.213583
0.142932
0.071852
0.125548
-0.052506
0.027812
0.075144
0.071413
0.109077
-0.013488
0.165188
0.211736
0.089159
-0.014847
0.067054
0.140745
0.018012
-0.072517
0.100619
0.005888
-0.039030
0.014660
0.099270
-0.007882
0.001944
-0.078881
-0.128973
0.021331
0.064369
0.091544
0.098949
0.081278
0.044070
-0.092374
-0.035304
-0.020255
0.052772
0.099161
-0.059842
-0.014471
-0.154526
0.160183
0.070574
0.058725
-0.080292
-0.034149
0.005928
0.043170
-0.033729
-0.113541
0.127940
0.029499
0.100209
-0.043292
-0.003267
-0.096279
-0.032187
0.088110
0.084523
0.120595
-0.019878
0.216773
-0.032128
0.047796
0.127580
0.037712
0.070654
-0.028554
-0.010279
-0.152187
0.145171
-0.116667
-0.062167
-0.104465
0.119554
0.073383
0.011537
0.114842
-0.169775
-0.121967
0.061225
0.032090
-0.022522
0.021711
0.107269
-0.001011
-0.063857
-0.025835
0.036762
-0.080579
-0.062136
0.094305
0.012549
0.067226
0.102842
0.099692
0.175803
0.074099
0.114496
-0.079020
0.081556
0.111842
-0.027580
-0.018211
0.130382
-0.017076
0.057245
0.122122
0.166952
-0.040291
0.138920
-0.099694
-0.025985
0.030841
0.010024
0.103330
0.009298
0.137755
0.161242
0.161876
0.203288
0.108639
0.144763
-0.014946
0.132657
-0.010323
0.088829
0.019052
0.086722
0.031089
0.174132
0.163354
-0.047016
-0.120539
-0.032346
-0.091560
-0.071827
0.119451
-0.063729
0.016772
-0.119897
-0.150429
-0.180396
-0.054696
0.125392
0.157648
0.081536
0.006131
-0.171499
-0.126457
-0.038705
0.146651
0.080029
0.150388
-0.031635
-0.079206
0.081410
-0.092114
0.083683
-0.025990
-0.170897
-0.147265
-0.125826
0.085353
0.023868
0.093086
0.083056
-0.165508
-0.021900
0.000094
0.069902
0.005346
0.148454
-0.043063
-0.008059
0.018453
-0.043742
0.023178
0.040044
-0.103990
0.039896
0.017805
0.040342
-0.027996
0.147992
0.071927
0.158748
0.049323
-0.062708
-0.085604
-0.088164
0.045642
0.053612
-0.163730
0.057138
-0.107158
0.061601
0.053386
0.130516
0.048324
0.010320
0.124597
0.018407
-0.013495
0.079269
0.011181
0.178185
-0.012791
-0.020575
0.098865
0.148938
0.145674
-0.085210
-0.059826
-0.101149
-0.168649
-0.042383
-0.049925
0.018769
0.063144
0.149599
0.013579
-0.108686
0.181966
0.048375
0.058881
0.085298
0.057473
0.016926
0.109928
0.050006
0.145516
0.013528
0.108993
-0.044659
0.069609
0.160040
-0.117627
0.080668
-0.048540
-0.093627
0.012591
0.044224
-0.027496
0.013450
-0.045987
-0.035488
-0.072670
0.093612
-0.055416
0.046817
0.171317
-0.084931
0.062728
-0.135021
0.080663
0.058913
0.065465
-0.054182
0.108622
0.081852
-0.033310
0.084219
-0.109816
0.038877
0.102505
0.032677
0.071472
-0.165392
0.109975
0.203879
0.112989
0.037813
-0.140010
0.111558
-0.181734
0.026123
0.023268
0.129808
0.040693
-0.049906
0.198308
0.052299
-0.091529
0.151330
-0.017930
0.007172
-0.077272
0.110279
-0.013196
0.045380
-0.007219
0.119736
0.066453
0.112024
0.057532
0.006065
0.101185
0.186459
-0.080185
-0.157101
0.131659
-0.083686
-0.001058
0.114603
-0.030461
0.149374
0.045843
-0.029175
0.147371
0.062576
0.123771
-0.026955
0.220781
-0.020233
-0.064999
-0.102510
0.025344
-0.014771
-0.105067
-0.197953
0.180600
-0.102203
0.022842
0.075570
-0.022473
0.145709
-0.084650
0.098500
0.160102
0.008728
-0.086643
-0.005516
0.099646
-0.176509
-0.018679
-0.029941
0.059980
-0.070756
-0.138761
-0.057660
0.032107
-0.001292
0.024463
0.099995
0.050947
0.112741
0.113870
0.028628
-0.122275
0.054623
0.047852
0.046112
-0.007634
-0.023249
0.088364
-0.061999
0.103754
0.045743
0.035123
0.093270
0.041796
0.119436
-0.076780
0.176577
0.148367
-0.112745
0.077453
0.048625
-0.021367
0.084994
0.075334
0.046522
0.124515
0.103452
0.124629
0.151368
0.137873
-0.016950
0.054610
-0.071447
0.114211
0.116444
0.162330
0.022927
0.031394
0.151052
0.053411
0.152598
-0.046789
-0.016597
0.055272
0.035993
-0.046760
0.052635
0.148404
-0.015327
-0.106176
0.054284
0.050021
0.055956
0.134655
0.048670
-0.125771
-0.004970
0.043251
-0.075095
0.123087
0.140058
-0.059539
0.146422
-0.055194
-0.061093
0.197533
0.109025
0.018790
-0.021262
-0.025236
-0.007135
0.008378
0.023496
0.087086
0.009146
-0.196193
-0.081078
0.235887
-0.089829
0.196185
-0.154757
0.097305
-0.011796
0.091541
0.044332
0.044060
0.054087
-0.146691
-0.058636
0.001258
0.182431
0.191212
0.122264
0.114813
0.129708
0.101041
0.062093
-0.030702
-0.097892
0.186725
0.055313
-0.060988
-0.003876
-0.095128
0.158822
-0.118394
-0.174038
0.143912
0.057116
0.011756
0.100223
0.059914
0.059990
0.103230
0.048069
-0.012661
0.101908
-0.037977
-0.016794
0.084833
0.000204
0.121790
0.123219
-0.148353
0.112878
0.027417
0.018816
-0.050124
0.019043
0.077830
0.073492
-0.031254
-0.014577
-0.023287
0.054973
0.045356
0.100211
0.024981
0.199562
0.100894
-0.003616
0.192817
0.116283
-0.027355
0.030326
-0.129124
0.125467
0.087922
0.118598
0.079765
0.022328
-0.095521
-0.053935
-0.026414
-0.003566
-0.006145
-0.094958
-0.036936
-0.007278
-0.090104
0.067346
-0.001937
0.014684
-0.127569
0.063860
-0.168575
-0.070431
0.173348
0.017137
0.055668
0.071674
0.104947
-0.169583
0.107823
0.001423
0.062680
0.019164
0.187721
0.126213
0.152962
0.160770
-0.050283
0.091870
0.009112
0.158229
0.163977
0.086423
0.105031
0.131425
0.105067
0.138406
0.108035
0.049499
0.070455
-0.157881
-0.047476
0.200726
0.095205
0.137946
0.096011
-0.009209
0.116810
0.016963
0.006198
-0.016131
0.062622
0.081367
0.054313
0.039475
0.169202
-0.119063
-0.111322
-0.021053
-0.032162
0.053492
-0.082606
0.080761
0.099400
0.003531
-0.083301
-0.149461
0.111758
0.079812
-0.156513
0.149703
-0.020069
-0.043930
-0.112478
-0.081914
0.095801
0.026061
-0.054969
-0.124442
-0.111715
0.121435
0.000151
-0.046313
0.003319
0.064007
0.072001
0.089758
0.097100
0.025499
-0.185776
0.100913
-0.091243
0.081126
-0.129201
0.028939
0.122318
0.068251
0.082289
-0.137199
0.149142
0.084694
0.110270
0.224915
-0.000468
-0.012748
-0.088905
-0.055320
0.009975
-0.012042
0.136280
0.053240
-0.006976
0.058007
0.092518
-0.051130
0.129268
0.036154
0.093902
0.179533
-0.027145
0.062515
-0.012456
0.063112
0.028331
-0.048084
0.055427
-0.028903
0.016204
0.099610
0.038771
0.032624
0.123171
0.031809
-0.166148
-0.002928
-0.059606
0.069300
-0.097297
-0.001483
-0.007120
0.079739
0.008171
0.001759
-0.053941
0.022087
-0.054615
-0.065238
-0.078017
-0.118682
0.070356
-0.154242
-0.126002
-0.138186
0.036599
0.045380
-0.263344
0.108931
0.116447
0.091923
0.069458
0.161231
-0.090459
0.052415
-0.148184
0.030002
0.100596
-0.039561
-0.113513
0.164144
0.096180
0.077228
0.208090
0.034858
0.118816
-0.064023
0.023490
0.090902
-0.053778
-0.050512
-0.033292
0.046881
-0.016536
0.035355
0.086099
-0.058532
-0.073016
0.094679
0.063118
-0.093054
0.135058
0.055502
-0.091031
0.076342
0.152583
0.034362
0.004485
-0.047097
0.053681
0.011727
-0.081717
0.043148
-0.007791
-0.027497
0.219341
-0.032719
-0.002483
-0.058586
0.033104
0.115406
0.046500
0.196691
-0.149506
-0.160822
-0.069897
0.010667
0.190841
0.130158
0.115917
-0.032667
0.045244
0.102030
0.047080
0.049872
0.105891
-0.106842
-0.009733
0.144344
-0.145239
-0.095698
0.023815
0.108594
0.048698
0.050704
0.023822
0.030572
-0.086320
0.125047
-0.001801
-0.013285
-0.115220
0.018597
0.055505
-0.169933
0.125547
0.064407
0.107225
0.037291
-0.100155
-0.100378
-0.013873
0.064679
-0.029293
0.118540
0.105156
-0.070791
0.194960
0.133427
0.106004
-0.014610
0.008945
0.187959
0.150416
-0.014426
0.133447
0.294058
-0.148543
-0.155008
-0.044717
0.095347
-0.012583
-0.028905
0.139701
0.220645
0.088531
0.001932
-0.061454
-0.135981
-0.019276
0.173652
0.135622
0.168577
0.067409
-0.076153
0.012179
-0.009801
0.136020
0.063125
0.024608
-0.170519
-0.011274
-0.097852
-0.051036
-0.064411
-0.187260
-0.033150
0.130233
0.035624
0.102351
0.035126
-0.007307
0.100079
0.036854
0.101018
-0.026869
-0.113650
-0.046666
-0.048971
0.126358
-0.035099
-0.149792
0.179623
0.045230
0.053358
-0.068295
-0.072521
-0.121511