# vtk DataFile Version 3.0
vtk output
ASCII
DATASET POLYDATA
POINTS 40962 float
-48.660325 5.382421 42.527586
-7.322843 43.718206 39.705392
-45.460460 -79.551327 44.287350
-12.526621 -97.321085 48.707504
-21.540978 -57.712071 84.370407
-23.886851 -13.113606 74.227741
-38.702456 -70.238352 5.017101
-30.081833 -10.478782 13.286503
-12.714720 -49.242946 27.308580
-12.470496 -36.049701 67.612039
-57.343383 -35.314638 29.936354
-55.870432 -36.738598 60.126650
-23.917521 -41.617181 87.301309
-39.712877 -20.094809 4.005632
-32.159698 36.366133 40.664868
-28.206020 -89.364776 35.685279
-43.897476 -80.741098 21.627571
-35.612213 -71.135054 65.989060
-29.532059 10.730618 32.921525
-42.496982 5.215823 62.442408
-62.706817 -39.377513 6.992021
-41.293318 -48.826539 76.012878
-50.762181 -7.059542 18.018467
-46.045002 -26.539596 69.004478
-61.690167 -60.494182 33.377652
-54.807546 -61.410886 64.284938
-34.477922 -26.777789 41.259796
-56.878261 -13.775558 43.616164
-1.692056 -40.925392 53.748927
-48.242430 -49.363156 43.308204
-17.351804 -75.848073 35.510967
-8.549640 -67.499580 59.436944
-0.870370 -2.036390 34.183033
-8.430573 4.344778 63.346491
-23.371493 -66.600290 14.421454
-5.808090 -60.174509 89.411739
-29.135078 -36.942630 16.926997
-11.449584 -15.131644 94.998697
-12.447207 -100.302491 4.788353
-14.513016 -82.834347 76.707383
-13.021699 22.441383 18.512148
-18.711074 22.720032 66.606193
-19.859240 -52.421246 87.035838
-44.489982 -46.463624 8.930258
-30.442198 15.840342 21.381745
-32.460768 13.469513 62.717461
-35.192401 -94.821672 8.112755
-28.722064 -80.118111 72.403926
-25.768920 -28.867062 80.355302
-29.980779 -7.138395 -0.868020
-52.896078 -71.780789 34.085225
-46.834373 -70.707589 57.072502
-42.423887 -4.679278 43.544860
-48.606369 -4.439393 44.334306
-7.415971 21.137349 70.813395
-4.926740 13.393875 21.756551
-7.288995 -76.863820 70.077742
-6.174991 -81.998470 25.022247
-59.987372 -29.844043 22.148490
-49.856985 -42.722048 68.678299
-55.972441 -22.206319 28.875843
-48.994897 -31.730798 61.353892
-46.225248 -79.550211 10.699050
-32.667259 -68.249518 78.175167
-32.518062 -83.060690 58.431975
-35.614899 -92.558364 29.694699
-37.153265 25.393641 53.665726
-43.028316 27.620333 27.455832
-32.091763 -2.198482 21.271436
-34.703497 -0.887410 75.114342
-17.836233 6.527315 82.481407
-16.411966 -10.433486 21.238724
-10.579563 -74.353440 85.616219
-8.265607 -89.185124 8.925843
-41.217299 -39.989317 36.503275
-59.419486 -23.209622 54.224162
-62.906025 -44.927300 29.862535
-59.988580 -46.107244 54.145521
-44.884282 23.879423 36.357912
-39.362013 -91.080728 46.897655
-4.848546 -47.082398 40.347132
-5.000133 -35.001387 62.730767
-36.893888 -44.211454 12.983216
-9.347647 -50.683772 92.894888
-29.472954 -74.798192 6.745438
-10.360252 -62.545483 95.078782
-30.839252 -23.639222 16.024692
-22.579100 -14.875458 84.122098
-30.124708 -26.277646 7.694828
-16.933849 -30.608669 91.316017
-37.304297 -74.133547 53.597932
-46.611434 -78.646675 35.578854
-41.720330 10.125031 53.537878
-39.131587 9.981885 36.735371
-11.359741 -74.973074 47.399665
-3.569844 12.240714 47.010833
-34.870760 -43.576055 46.148207
-56.302603 -30.573298 46.820302
-55.808482 -58.652490 38.355032
-60.946832 -55.923689 47.569529
-4.092658 -1.671099 80.515881
-5.238360 -23.487266 18.876059
-10.271607 -65.163997 71.324567
-16.302616 -72.165352 21.800990
-41.635870 -39.192844 70.125229
-58.925342 -14.639344 13.048062
-5.376313 -37.794751 85.506212
-29.408113 -46.792812 17.194222
-49.405990 -18.010673 57.174648
-45.233860 -29.133188 26.216323
-45.335143 -49.811547 61.593725
-60.645003 -47.364116 20.940083
0.894215 -23.523939 46.461792
-3.365042 -14.834890 61.423290
-7.348626 -60.703833 39.955987
-6.419839 -54.161388 56.617486
-54.189548 -70.599535 53.671333
-49.305736 -16.689309 37.202762
-16.819764 -90.074874 65.644435
-5.609623 -97.444567 27.008255
-13.362379 39.736191 59.110482
-7.389215 41.562771 22.582003
-56.921123 -29.377135 3.120860
-30.624943 -46.073280 78.769873
-55.702624 -54.724728 6.950384
-31.672889 -56.033337 83.028868
-39.346421 -0.513783 12.002519
-38.530521 -21.789608 80.852842
-45.146447 0.713035 -0.316038
-36.094140 -34.769342 79.264271
-45.265413 -49.101175 34.519804
-60.815515 -38.374332 48.723003
-16.730997 47.571803 39.842724
-19.580851 -93.721431 37.811881
-2.473050 -30.741345 31.005636
-9.379835 -14.437816 70.469776
-13.530708 -64.125317 26.540773
-11.603020 -55.733558 64.479793
-41.240610 -15.357736 73.775322
-40.686192 -11.393365 24.892822
-34.942882 -60.876527 72.409501
-59.134441 -67.303974 13.143141
-26.262994 -92.160011 0.875649
-19.130829 -72.137453 78.209165
-25.303379 -81.177494 57.099840
-19.651763 -102.392575 19.911289
-24.759427 30.816137 53.193216
-24.084397 40.833551 27.885679
-24.540092 -4.471969 20.252200
-22.387557 3.705726 71.387032
-21.530682 -58.447159 18.246732
-11.341575 -49.116708 73.473738
-21.197228 -45.050999 20.977253
-5.585275 -23.767182 80.423617
-39.125877 -10.979650 56.671330
-30.262489 -8.162195 40.139683
-38.821340 -59.967904 57.227165
-55.519275 -68.062108 24.283630
-11.096797 -84.232891 42.883159
-9.797082 -83.059038 56.571621
-8.056183 24.534584 35.036220
-5.965856 24.867537 52.936066
-37.777554 -84.932048 5.031674
-26.535198 -69.202117 76.690956
-28.842187 -4.092404 18.563955
-26.621883 1.957784 71.976773
-24.813973 -21.892268 75.895258
-29.472168 -8.436127 5.610011
-25.501995 -35.021156 85.181378
-33.747196 -10.745885 -1.119275
-36.943632 34.509920 28.637832
-30.656542 26.423150 53.432713
-28.251443 -98.643943 22.216799
-28.976142 -80.810761 56.796938
-21.678085 -48.024926 87.148488
-44.181412 -32.955908 8.643763
-19.643709 -54.742263 86.852924
-41.589542 -59.026491 6.577414
-49.012104 -73.952123 45.921307
-49.234742 -3.052783 41.806148
-10.916489 -86.465679 49.699208
-6.663895 27.856301 42.623986
-57.485754 -65.387566 54.613680
-56.541150 -65.442777 46.402018
-52.916528 -25.130161 40.050906
-41.051057 -31.405267 42.822944
-46.265750 -60.496099 62.200811
-59.659988 -63.090319 26.995512
-47.024601 -12.173015 50.069489
-33.320379 -17.480995 40.023839
-20.228156 -22.932352 89.005407
-30.917043 -25.725137 9.670470
-8.359886 -57.668923 95.596432
-35.943927 -59.743902 10.563695
0.940649 -17.279997 32.143008
-9.206687 -4.994428 68.382234
-16.160274 -71.143488 30.224976
-9.924845 -62.275030 62.336953
-50.391908 -37.658211 6.789056
-25.640371 -49.533213 82.486699
-42.307704 -8.458029 -1.768833
-29.711348 -37.925523 83.228498
-48.914823 -23.987956 3.725618
-26.991129 -44.545862 82.921544
-36.179060 -0.522973 -2.417181
-31.636142 -32.404430 81.234215
-1.929402 -37.015996 59.034271
-3.055227 -44.823257 47.317081
-7.740852 -70.297713 69.591867
-11.637112 -77.282075 24.918766
-5.833935 9.497165 75.676962
-2.381352 -5.718876 20.572596
-27.641781 -54.427931 16.058569
-4.614589 -49.272537 85.242772
-30.579911 -42.584415 16.822269
-7.563412 -26.487091 91.330379
-59.162305 -23.926825 27.314949
-48.975663 -39.187417 66.536514
-34.139988 -77.439849 71.445118
-39.547632 -87.339878 15.308248
-40.443898 11.715700 63.338034
-31.980144 14.669281 25.903420
-8.339698 -74.107174 57.458443
-15.028303 -79.216912 39.859298
-6.878155 14.299381 57.836813
-5.547733 12.324214 35.329747
-39.795490 -21.343916 41.446851
-56.122712 -14.044009 37.134867
-57.188483 -67.327269 41.655540
-54.995768 -68.306894 63.294560
-29.258622 -16.812607 6.499962
-22.291322 -22.693744 80.019212
-33.385210 -73.475639 4.232254
-15.390032 -59.308789 89.380908
-29.620379 -16.837173 14.222151
-22.331385 -14.717286 75.804311
-38.761018 -60.536995 7.644015
-13.726565 -56.462779 92.117305
-40.072926 1.461267 42.956737
-43.409677 0.581816 50.868037
-50.748815 -73.975268 32.962736
-41.487143 -70.476825 52.604133
-32.216809 -40.292274 78.697188
-52.881914 -12.694766 -0.026018
-53.587615 -74.448166 13.033697
-34.405262 -65.308778 77.451214
-36.004791 -4.874549 24.371519
-39.256716 -8.389077 76.819934
-48.189081 0.560512 45.549804
-47.039244 0.443826 43.129612
-45.223866 -74.641764 48.178779
-48.962826 -75.516999 38.512027
-7.985759 -13.700980 66.385728
-0.153665 -26.971601 38.905641
-8.470390 -54.749636 61.458742
-9.851880 -63.604621 32.872634
-6.511301 2.615018 19.230326
-11.164978 16.213045 77.336326
-4.252056 -86.086423 14.865686
-8.383757 -76.080484 77.473308
-15.081749 -23.585954 94.572590
-31.860458 -33.931352 13.144876
-4.843855 -55.510547 93.182906
-31.751929 -57.001806 13.587335
-16.854685 -46.846699 24.268785
-9.929917 -29.818095 72.601238
-18.213148 -54.524306 21.962456
-13.284095 -43.150883 69.455006
-51.473112 -53.194645 34.103956
-61.724423 -46.596190 44.891402
-36.930644 -48.367868 41.805267
-58.404630 -34.366594 49.929573
-38.458004 -92.387326 39.350164
-35.092776 -87.905453 51.519495
-45.526679 26.026851 29.619444
-39.519222 27.106617 46.150163
-55.174408 -68.990303 27.930061
-43.415472 -64.756089 58.615643
-34.461092 -6.050274 44.020215
-43.184129 -7.191543 50.708428
-54.209790 -5.121515 5.258319
-38.304865 -36.810603 73.431469
-60.171327 -19.899758 3.524023
-36.104289 -41.940986 74.770785
-10.575592 49.161836 38.915054
-15.835542 -98.105009 44.040759
-20.698883 -92.482936 52.062979
-11.827755 -100.105596 33.256438
-15.241429 45.647183 48.607520
-10.431122 49.040944 30.097357
-17.659516 -68.461117 23.616019
-11.905168 -61.021997 66.573120
-2.754193 -26.889513 23.934214
-6.311020 -8.217874 74.974294
-7.775652 -95.331455 4.582764
-11.548822 -79.109741 80.407000
-12.451927 6.798627 20.038652
-17.575778 15.765819 74.144837
-41.285403 8.443272 57.720905
-32.239920 12.394126 36.033665
-35.551215 -71.104725 58.716009
-44.249827 -78.729048 29.117739
-60.086788 -37.635742 20.378573
-49.008204 -45.353902 65.396979
-51.515396 -26.655954 27.133038
-50.477542 -23.470286 58.127882
-52.077830 -8.096092 37.989788
-45.950062 -9.758286 40.005100
-50.994580 -72.095186 57.569764
-53.068050 -71.756373 43.610618
-56.368078 -52.018818 42.367621
-50.570606 -55.415897 38.669450
-50.612675 -40.879586 47.966811
-39.907145 -47.364415 45.812525
-41.115608 -78.322766 49.586860
[...]
POINT_DATA 40962
FIELD ScalarData 1
H 1 40962 float
0.090978
0.066527
0.056218
0.072172
-0.034729
-0.035914
0.042317
-0.003525
-0.013773
0.014919
0.063516
0.035307
0.014412
0.010667
0.021010
-0.014372
0.044869
0.041570
-0.011542
0.062282
0.042414
0.026216
0.030885
0.014981
0.044562
0.093833
-0.046011
0.094855
-0.019946
0.013061
-0.018973
0.012322
0.043539
-0.002000
0.002388
0.083000
-0.015046
0.029245
0.019997
0.062834
0.053306
0.044432
0.019513
0.003592
0.062619
0.065442
0.044253
0.019405
0.010960
0.097760
0.037769
0.080175
0.019841
0.099934
0.083629
0.089090
0.053480
0.000773
0.011003
0.042191
0.040335
0.012837
0.038099
0.075011
0.056955
0.037595
0.071540
0.054824
0.010968
0.063776
0.091145
0.053497
0.120844
0.011035
0.002798
0.035084
0.056425
0.033923
0.097431
0.110717
0.021320
-0.017793
0.028286
0.042500
0.071148
0.053298
-0.047739
0.004913
0.025583
-0.005468
-0.004598
0.027008
-0.028420
0.025901
0.011711
0.008904
-0.106871
0.094036
-0.015235
0.055555
0.000403
0.101364
-0.035320
0.003675
0.013227
0.052044
0.052521
-0.043494
-0.000911
0.051371
0.002940
0.002511
-0.011815
0.011637
-0.002793
0.039326
0.082765
0.089610
0.086458
0.025035
0.083640
0.020725
0.055231
0.025857
0.071646
0.037776
0.075160
0.044022
0.098159
0.013067
-0.061841
0.120594
0.072685
-0.004067
-0.035607
0.008958
0.023351
-0.005362
0.058967
0.027854
0.036127
0.069455
0.025852
-0.019260
-0.030682
0.005383
0.011934
0.040513
0.002124
-0.034449
-0.034464
-0.008087
-0.043841
0.019986
-0.057719
-0.061778
-0.053996
0.038279
0.013977
0.015903
0.008968
0.005842
0.022554
-0.007389
0.004981
-0.016552
-0.006760
0.055456
0.010962
0.073314
0.039755
0.038374
0.015276
-0.012300
0.024896
-0.020194
-0.009879
0.038499
0.077836
0.112612
0.021483
-0.002317
0.057825
0.019691
0.080839
-0.027514
0.033929
0.036921
0.022850
-0.049363
0.003031
-0.005067
0.063047
0.057849
0.005851
0.002391
-0.003380
0.009311
0.007636
0.031694
0.064968
0.022375
0.006546
0.029525
0.113355
0.025365
-0.031767
0.006546
0.009532
0.001751
0.047351
0.145627
-0.027083
0.065933
-0.038440
0.033459
0.034857
0.038745
0.075547
0.038746
0.119328
0.030051
0.004542
-0.010075
-0.004550
0.037205
-0.013043
0.143095
0.046404
0.117873
0.022891
-0.009439
0.061143
-0.019039
-0.034387
-0.033265
0.052010
0.014221
0.005849
-0.003481
0.018030
0.000123
0.013143
0.067886
0.066818
0.084660
0.018069
0.084006
0.084509
0.074453
0.052666
0.041851
0.013845
-0.031774
0.036817
0.009403
0.115729
0.113460
-0.004508
0.104017
0.017665
-0.020037
0.086098
0.029206
-0.048496
0.023950
-0.021704
-0.000054
-0.036577
0.091972
-0.109220
0.121525
0.073752
0.093548
0.084713
0.068466
0.022858
0.009312
-0.053458
0.001334
0.075753
-0.005023
0.084648
0.009026
0.094682
0.055664
0.050596
0.025296
0.086428
0.065240
0.012894
-0.048727
0.024353
-0.010520
0.004908
0.103065
0.062490
0.083549
-0.013647
-0.012809
-0.011409
0.028786
-0.007537
0.022187
0.053772
-0.001057
0.146076
0.066523
0.117129
0.071393
0.052122
-0.027775
0.064794
-0.065643
0.039512
0.045859
0.035659
0.078584
0.044472
0.037242
0.032644
0.014823
-0.057890
0.040105
-0.055829
0.039761
0.007163
0.022532
0.034708
0.005840
-0.047716
-0.042413
0.047841
-0.048015
0.016781
0.045664
0.013522
0.029719
0.004342
0.012157
0.038632
0.032935
0.061822
0.036250
-0.048479
-0.073666
0.021419
-0.059722
0.017985
0.037083
-0.007631
0.026642
0.018540
-0.006155
0.057272
-0.021614
0.029697
-0.045233
0.056088
0.057119
0.049219
0.030922
0.049346
0.009830
0.024040
0.025399
0.026925
0.047529
0.045980
0.042125
0.008759
-0.037692
-0.034104
0.007611
0.103555
0.047513
0.032024
-0.034181
0.002238
-0.033112
0.087787
-0.005894
0.040407
-0.017591
-0.025248
-0.044040
0.027943
0.012765
0.059066
0.031231
0.011267
0.005975
0.039418
0.013446
-0.006276
0.014732
0.088532
-0.046586
0.070335
0.019594
0.055905
0.073749
0.066978
0.046890
-0.044658
0.033289
-0.010392
0.032851
-0.002887
0.048038
-0.056721
-0.033416
0.006868
0.032134
0.056140
0.032694
0.072156
0.032462
-0.006358
-0.000278
0.093549
0.044711
0.043292
-0.028716
0.005097
-0.022206
0.006825
0.035036
0.050969
0.017425
-0.008345
0.022462
0.005426
-0.007812
0.036923
0.034892
0.026053
0.029773
0.044093
0.040609
0.049188
0.096638
0.037362
0.032816
0.007055
0.020675
0.033431
0.075305
0.036384
0.059331
0.038673
0.025224
0.062615
0.002758
0.108530
0.018781
0.058488
0.021280
0.007068
0.103873
0.049367
0.092636
0.004814
0.048718
-0.021556
-0.050481
0.058236
0.063459
0.108602
-0.080139
0.078232
0.027000
0.066312
0.117958
0.065885
0.000318
0.025713
0.089606
0.010992
0.084036
-0.039223
0.017972
0.024141
-0.004427
0.074803
0.011481
0.078397
0.025959
0.051573
0.031650
0.058003
0.103911
0.000283
0.107227
0.018453
-0.019790
0.024826
-0.030599
0.025083
0.021063
0.026303
0.040367
0.036084
0.056611
0.053416
0.041742
0.084201
0.050911
0.090693
0.044835
-0.009703
0.000104
-0.018448
-0.007030
-0.008223
0.002665
0.012637
-0.001187
-0.008072
-0.041625
0.017207
-0.004533
0.065311
0.027252
0.081330
0.015442
0.069900
0.040775
-0.007180
0.054903
0.032349
0.020488
0.046702
0.003609
0.084824
0.076302
0.057057
0.101442
0.102302
0.092817
-0.008579
0.023569
0.001762
0.053079
0.009077
0.020850
0.041646
0.038525
-0.016696
-0.022512
0.050738
0.039664
0.021779
0.000197
-0.006360
-0.013851
0.062060
0.021528
0.050450
0.035730
0.006664
0.068656
0.023587
0.083190
-0.012804
-0.011750
0.060715
-0.033399
0.091340
-0.086444
0.059632
0.023697
0.035241
0.016367
0.051189
0.044822
0.022711
0.059782
0.007507
0.030978
0.006212
0.021163
0.012170
0.064377
0.031606
0.062991
0.104170
0.023967
0.049475
0.009233
0.051324
0.012980
0.037205
0.017828
0.015934
0.004818
-0.020937
0.036216
0.105955
0.040188
0.112313
-0.030989
-0.003391
0.042840
0.008522
0.068091
-0.057036
0.027795
0.055283
0.026891
0.032845
0.000241
-0.020277
0.034335
-0.014926
-0.001204
0.103189
-0.068257
0.015069
0.027402
0.041101
-0.007598
0.002755
0.010782
0.061225
-0.005416
-0.029082
0.058667
0.049916
0.056288
0.027364
0.102667
0.030511
0.066220
-0.008462
-0.001917
0.017327
0.093120
0.045246
-0.005179
0.022943
0.009964
-0.017897
-0.041728
0.094048
0.011978
-0.021997
0.023207
-0.012058
0.019949
0.039858
0.003366
-0.005599
-0.016370
0.006702
0.023310
0.030310
0.042476
0.015590
0.031871
0.004977
0.083298
0.028749
0.020596
0.056553
0.066116
0.042253
0.011180
-0.025338
0.044866
-0.013412
0.025595
0.029069
-0.030498
0.019590
-0.006082
0.119615
-0.000312
0.109228
0.095425
0.015609
0.045306
0.027875
0.019222
0.006082
0.001965
0.031426
0.008013
0.009122
0.029131
0.040089
0.001948
-0.008241
-0.019681
0.061749
-0.001977
0.060544
0.105151
0.036391
0.129208
0.038215
0.037670
0.027353
0.031526
0.006641
0.007706
0.013661
0.004889
0.025543
-0.011052
0.030975
0.060219
0.004652
0.040029
0.025836
-0.010289
0.099013
0.041480
0.096698
0.003959
0.021308
0.136160
-0.014741
0.003737
0.081766
0.096040
0.107541
0.096073
-0.010610
0.021520
0.012565
0.043620
-0.070976
0.089977
-0.045615
0.080037
0.117338
0.026362
0.022168
0.026248
0.022147
0.005943
0.075474
0.001190
-0.008942
0.022976
0.002012
0.080459
0.000360
0.004806
-0.004363
-0.004253
0.107702
0.022244
0.029202
0.031498
0.084703
-0.002026
0.074349
0.061181
0.052322
0.050248
0.013194
-0.045196
0.050287
0.005504
-0.009310
0.006034
0.099789
0.033979
0.126766
-0.053533
-0.009291
-0.028547
0.042099
0.021651
0.010057
0.017986
0.006941
0.029735
-0.021002
-0.001997
0.004944
0.103002
0.011461
0.142728
0.050959
0.121299
0.087194
0.038557
0.100617
0.019937
0.016942
0.016445
0.033151
0.003460
0.085542
0.009975
0.106406
0.017816
0.069491
0.100396
0.000279
0.111715
0.102803
-0.099450
0.063411
0.006095
0.040959
0.022996
0.009122
-0.004352
0.100438
0.109464
0.108709
0.086581
0.063006
0.003750
-0.006408
-0.004570
0.075967
0.042205
0.095835
0.058597
0.024155
0.055771
0.046242
0.053266
0.052027
-0.021712
-0.041374
-0.019689
-0.037092
0.050488
0.007449
-0.025440
0.041551
0.074125
-0.043493
0.065710
-0.004858
0.055231
0.016358
0.076863
0.003679
0.028477
0.027734
0.048731
-0.008093
-0.020821
0.028158
0.068923
0.021077
-0.035126
0.009036
-0.016207
-0.044721
0.030918
-0.044283
0.029348
0.058457
0.040638
-0.015782
0.056126
0.062081
-0.042803
0.063937
0.030818
0.044189
-0.061248
0.073157
0.053857
0.067898
0.031797
0.027425
0.149492
0.059436
0.123292
0.013132
0.022683
0.029794
0.017050
0.078823
0.042953
0.078497
0.022472
-0.003880
0.025778
0.023487
0.020222
0.006121
-0.031208
-0.005505
0.048174
0.090105
0.094744
0.110039
0.082487
0.047879
-0.001543
0.074656
0.022130
-0.053388
-0.032979
0.058209
-0.012016
0.030079
0.024759
-0.004142
-0.007318
0.013080
0.002765
0.005818
0.092484
0.072634
0.065997
-0.022083
0.054497
-0.026593
0.041618
0.089553
0.052843
0.080693
0.013533
0.087477
0.017752
0.078944
0.027711
0.035006
0.034036
0.011640
0.006729
0.021396
-0.001418
0.049646
-0.009128
0.047620
0.045485
0.064658
-0.044123
-0.039470
0.019234
-0.058419
-0.015351
0.047713
-0.016367
0.017269
0.010967
0.006920
-0.020230
0.027227
-0.013958
0.028451
0.038266
0.016119
0.018319
0.020411
0.063030
0.031862
0.061721
0.061355
0.073009
-0.050022
0.021192
0.072554
0.071922
0.075139
0.102950
0.029792
0.015535
0.049760
0.026451
0.011362
0.000469
0.001365
0.005421
0.033952
0.066607
0.107872
-0.059387
0.092304
0.040594
0.050417
0.025965
0.003238
0.013475
0.061972
0.064888
0.043628
0.001230
0.013381
-0.022513
-0.031636
0.050093
-0.006540
-0.056579
0.029167
0.063736
-0.014999
-0.045719
-0.051341
-0.027278
-0.044015
0.038462
0.024715
-0.033537
0.043671
-0.066960
-0.058577
-0.065933
0.056494
0.040131
0.050205
0.013658
0.038778
-0.014672
0.011216
-0.004115
-0.020258
0.098229
-0.060026
0.111591
-0.011063
0.059440
-0.042694
0.007882
0.068036
0.047566
0.029109
0.043082
0.090759
0.057179
0.010747
0.030067
0.012549
-0.039592
0.007954
0.031081
0.005893
0.008603
0.048873
0.020382
0.019805
0.026676
0.008724
-0.032318
0.047837
0.066364
0.016021
0.042396
0.014266
0.055160
0.027791
0.057700
-0.072268
-0.065033
-0.063451
0.029777
-0.043718
-0.000109
-0.007236
0.059896
0.062485
0.028090
0.044302
0.025160
0.019680
-0.018349
0.013170
0.012316
-0.001962
0.092797
0.049667
0.072833
-0.045293
-0.047655
0.041799
-0.030893
0.039510
0.003932
0.060096
0.011387
0.012570
0.009699
-0.008110
-0.004477
-0.001306
-0.010921
-0.047949
-0.000614
0.091976
0.036068
0.070642
0.032580
0.060768
-0.004111
0.010005
0.016727
0.123160
0.030291
0.000541
0.009909
0.086205
0.071123
0.087161
-0.012650
0.113812
-0.088438
0.023354
0.035855
0.066353
-0.011757
0.008053
-0.053215
-0.032268
0.050927
-0.034885
0.028082
0.029644
0.040133
0.052536
0.017016
-0.009492
-0.003610
0.014184
-0.047915
0.020476
0.022646
0.037060
0.027267
-0.015694
-0.044497
0.014422
0.069491
0.059102
-0.004636
0.113844
0.033281
0.028985
0.021154
0.008750
0.022981
0.035552
0.029237
0.070847
-0.025472
0.108153
-0.115603
0.016583
-0.030567
0.086035
0.059245
-0.045187
0.051701
-0.048839
0.038374
0.020255
0.063815
0.028163
0.079444
0.048813
0.043463
0.046952
0.051043
0.050724
0.019160
0.041729
0.019395
0.047726
0.042046
0.001792
0.003825
0.075222
0.023145
0.063880
0.073792
0.006980
-0.034574
-0.028184
0.022222
0.062192
0.033037
0.047160
0.043665
0.032368
0.028358
0.042571
0.025161
0.009149
-0.001350
-0.042478
-0.050300
0.048232
-0.039385
0.019218
-0.027873
0.004637
0.008435
0.058387
-0.000202
0.050837
0.047202
0.021054
0.033390
0.057807
0.005565
0.036249
-0.035300
-0.037321
-0.034249
0.015124
0.047584
-0.028075
0.024734
0.091346
0.090636
0.109347
0.003953
-0.032468
-0.058797
0.025284
-0.047432
0.006324
0.000740
-0.001792
0.022042
0.046322
0.048871
-0.005996
0.039813
0.104267
0.108497
0.038332
0.078004
0.044169
0.071111
0.026633
0.115652
0.030774
0.038692
0.035595
0.037867
0.022626
0.049732
0.032040
0.058919
0.122832
-0.077422
0.070012
-0.003034
-0.011787
0.016859
0.041461
0.019252
0.019087
0.029797
-0.004937
0.007250
0.055201
0.108282
0.044209
0.135879
-0.020018
-0.028622
-0.018823
0.006302
0.015275
0.075946
-0.017908
0.084418
0.038578
0.026391
0.025663
0.044692
-0.044572
0.059393
-0.031080
-0.037653
0.033108
0.042646
0.005910
0.027092
0.051526
0.027763
0.059190
0.019074
0.064709
0.024531
0.097215
-0.089575
0.120545
-0.094319
0.105448
-0.058991
0.010791
0.064046
0.031640
0.044777
-0.038641
0.019616
-0.050868
-0.056174
-0.023160
0.053213
0.025728
0.049591
0.090080
0.030579
0.086252
0.036881
0.082875
0.058167
0.079692
0.063725
-0.001987
0.060222
0.139949
0.087475
0.031849
0.085771
0.049694
0.072034
0.008887
-0.023936
0.015486
-0.005442
-0.021645
0.028900
-0.003362
0.023583
0.030404
-0.024778
0.001516
0.026352
0.072925
0.037623
0.105362
0.034170
-0.010527
0.040963
0.022078
0.015303
-0.012712
-0.024307
-0.009429
-0.020916
0.110805
0.026488
0.068086
0.009730
0.009776
-0.001163
0.026835
-0.000138
0.023674
0.038783
0.019398
0.061875
0.065778
-0.004800
-0.007892
-0.011879
0.040503
0.052705
0.048660
0.102376
0.108496
-0.068005
0.074189
0.017082
0.010747
0.001818
-0.017921
0.005111
-0.014921
0.035344
-0.023430
-0.057523
0.030457
0.109836
0.027863
0.049791
0.036735
0.009936
-0.016639
0.022234
0.012354
-0.023395
0.030871
0.000965
-0.039838
-0.034059
0.035473
0.043654
-0.000626
0.003847
0.014327
0.000839
0.047526
-0.054853
0.051925
-0.053276
0.005602
0.115678
0.061303
0.093391
-0.049065
-0.027315
-0.034867
0.015423
-0.035273
0.063625
0.033246
0.078084
-0.013895
0.040099
-0.017200
0.008034
0.046182
-0.004001
0.058154
0.064425
0.068241
0.053537
0.023994
0.036675
0.008219
0.046270
0.047073
0.075605
-0.040396
0.077046
0.019057
0.104810
0.028940
0.060058
0.028897
-0.012706
0.024675
0.002427
-0.013995
0.036777
0.012272
0.055169
0.001923
-0.032778
0.024783
-0.016178
0.038649
0.063669
0.049743
0.090319
0.028930
0.013294
0.013407
0.011197
0.084823
0.041538
0.072967
0.028981
0.012243
0.035051
-0.042867
-0.012752
0.058712
0.031159
0.039630
0.055895
0.001528
-0.027184
0.030889
0.035733
0.067081
0.020326
0.046290
-0.011352
0.004363
0.001959
0.027945
0.069755
-0.000304
0.006202
-0.022534
-0.011500
0.042812
0.074144
0.053724
0.055783
0.040225
0.059955
0.012282
0.085206
-0.004486
-0.018545
0.010671
-0.005836
0.017304
0.038686
-0.035183
0.007524
0.030487
0.049623
0.039314
0.042530
0.065124
0.060804
0.005150
0.033339
0.021253
0.011282
0.036214
0.002193
0.052453
0.038990
0.066294
0.060163
0.005855
0.003309
0.043822
0.018703
0.013730
-0.042847
-0.008148
0.029065
0.103652
0.111484
0.079355
-0.003358
0.009395
-0.000562
-0.012048
0.017411
0.055263
0.000131
0.002067
0.027938
0.084292
0.015396
0.084246
0.030480
0.004312
0.045371
0.018152
-0.014505
0.016265
0.007028
0.048255
-0.020108
0.095648
0.013804
0.040353
0.002218
-0.035117
-0.036850
-0.037216
0.041828
0.057068
0.021815
0.042311
0.004522
0.087733
0.041862
0.114245
0.016110
0.038641
0.028262
0.027267
0.048581
-0.027355
0.026574
0.016591
0.093014
0.087980
0.057479
0.122093
0.073844
-0.012683
0.017407
0.013552
0.070556
-0.019295
0.140451
0.046222
0.123582
0.037528
-0.000676
-0.029497
-0.007050
0.021365
0.003167
-0.007690
0.057076
0.046651
0.067221
0.015029
0.053517
0.020618
0.066864
0.029595
0.067856
0.060996
0.015590
0.033259
0.023053
0.024034
-0.029976
0.002045
-0.040018
0.032388
0.068665
0.017639
0.067992
0.081064
0.000229
0.023951
0.018365
0.003406
-0.022589
0.073060
-0.005789
0.109391
-0.106468
-0.004837
0.036049
0.026844
-0.020101
0.027286
-0.026543
0.026508
0.035100
0.008340
0.024187
0.009370
0.105104
0.040650
0.072615
0.035698
0.025598
0.044857
0.001455
0.033689
-0.012555
-0.029082
-0.033167
0.032440
0.001071
0.023226
0.093994
0.001121
-0.004896
0.125197
0.032597
0.025267
-0.004390
-0.018358
0.019637
0.071396
-0.003150
0.085208
0.017235
0.020218
0.018967
-0.000170
-0.000084
0.045564
0.010048
0.069661
0.025545
0.045371
0.034865
0.071237
0.004412
0.008346
0.033745
0.003767
0.061242
-0.037957
0.059859
-0.043489
0.043116
0.069955
0.127140
0.032883
-0.000006
0.025267
0.041339
0.030826
0.037355
0.127824
0.095360
-0.001794
0.088486
0.001797
0.040118
-0.016850
-0.011012
-0.031382
0.013264
-0.014915
0.020293
0.024619
0.000905
-0.014226
0.028869
0.068947
0.019335
0.020276
0.035142
-0.046157
-0.040493
-0.055920
0.051098
0.032117
0.020883
0.033361
0.059482
-0.001439
0.041593
0.090154
0.037347
0.084961
0.088842
0.050388
0.047769
0.006488
-0.042640
0.101964
-0.004357
-0.066243
-0.039506
0.028066
-0.029116
0.025975
-0.052719
0.014502
-0.042864
0.061636
0.045821
0.025122
0.026583
-0.101122
0.104873
-0.042202
0.079768
0.007890
0.079110
0.070311
0.071480
0.102224
0.050683
0.039558
-0.035277
0.036497
0.004748
-0.009690
0.030324
0.022804
0.030651
0.012837
-0.059345
0.042669
0.114413
0.038352
0.056691
0.071442
0.024869
0.077919
0.061783
0.016964
0.117989
0.039407
0.077782
0.057134
0.053655
0.047929
0.036150
0.014971
0.071689
0.042652
0.048072
0.008045
0.079054
0.001747
0.082255
0.028914
0.032324
0.005763
0.018676
0.019385
0.074658
0.017720
0.084995
0.055120
0.033867
0.102830
0.038969
0.011801
0.092650
0.044630
0.093640
-0.001627
0.014633
0.056369
0.042349
-0.014217
0.013309
0.028691
0.000205
0.025772
0.035697
0.010323
0.033544
0.020439
0.037355
-0.043851
-0.027330
0.042275
0.105166
-0.043455
0.107605
0.071943
0.071280
0.032933
0.076298
-0.006845
-0.029104
0.077555
0.015380
0.071975
0.020873
0.074107
0.039636
0.009902
0.057201
0.018292
0.034265
0.028320
0.039538
0.128931
0.082269
0.106738
0.081492
0.085993
0.075867
0.067487
0.075109
0.073939
-0.057224
0.055674
0.043264
0.016936
0.074340
0.040786
0.055754
-0.004160
0.007330
0.038904
0.058449
0.014876
0.001654
0.049371
0.098119
0.053101
0.041393
-0.014211
0.043900
0.022790
0.000680
0.059627
-0.019972
0.046206
-0.004144
0.069380
0.028022
-0.025303
0.054228
0.044924
0.063347
0.005645
0.017055
-0.006543
0.028852
0.053299
-0.068576
0.032882
-0.013823
0.052685
0.071359
0.069584
0.037838
-0.025477
0.040898
-0.012327
0.039975
0.019271
0.089021
0.029053
0.027448
-0.007910
0.039656
0.004257
0.063556
0.114173
0.042493
0.129050
-0.043028
0.035480
0.000335
0.059932
0.144891
0.047605
0.035031
0.013120
0.025530
0.014416
0.017287
0.004215
0.029585
0.046069
-0.038804
-0.008677
-0.022263
0.071286
0.092569
0.054034
0.054490
-0.002343
0.053918
0.017098
0.035082
0.022539
0.019728
0.012064
0.015944
0.053550
0.011736
0.070139
0.033862
0.018202
-0.046231
-0.020389
-0.003978
-0.027906
0.005010
-0.021343
0.017226
0.050959
-0.008590
0.017822
-0.021535
0.009632
0.022369
0.018998
0.029659
0.028693
-0.035952
-0.021730
-0.050511
0.109624
-0.004323
0.115359
0.089175
-0.057542
0.029920
-0.047580
0.012954
0.029910
0.001906
-0.005456
0.003848
-0.000428
0.033367
0.046938
0.003615
0.004610
0.011257
0.005018
-0.007259
0.117868
0.097050
0.092365
0.058558
0.092901
0.008276
-0.002429
0.120089
0.086752
0.111983
-0.027426
0.016719
0.018402
-0.037988
0.008346
0.036402
0.030154
0.026351
-0.005157
0.030852
0.041274
0.041354
0.086070
0.063698
0.022198
-0.043672
0.089522
0.028259
-0.000973
-0.017251
0.044571
-0.006456
0.096319
0.038518
0.108818
-0.008884
0.022586
0.087280
0.011273
0.095383
0.036846
0.031823
0.007313
0.051356
0.086478
0.046823
0.042525
0.032561
0.007730
0.098346
0.036676
0.085460
-0.012733
-0.030171
-0.037123
0.011912
0.013189
-0.031636
0.003052
0.032843
0.034740
0.053800
0.038042
0.063154
0.018721
0.000224
0.042228
0.005493
-0.008165
-0.013270
0.036899
-0.061929
0.031831
-0.059232
0.033460
0.110275
-0.015839
0.045759
0.011876
0.044076
0.024632
0.053450
0.068633
0.025903
0.100576
0.017410
0.079634
0.057735
0.059806
0.081795
-0.006469
-0.030292
-0.000883
0.017113
-0.047695
-0.038884
0.018832
0.027894
0.023530
-0.029171
0.097124
0.040602
0.037868
0.033975
0.026326
0.009026
0.030689
0.081044
0.032014
0.079275
0.020339
0.009522
-0.001564
-0.013370
0.019911
0.018379
0.054280
-0.017429
0.022948
-0.013582
0.059387
0.045996
0.041618
0.066121
0.033354
0.068658
0.028098
0.060385
0.033108
0.047426
0.037128
0.051795
0.057361
-0.000110
0.033722
0.020363
-0.028683
-0.007628
-0.051004
0.023033
0.030074
0.033789
0.021292
0.004978
0.053018
-0.001488
0.013547
0.012728
-0.039358
0.018704
0.005605
0.030864
-0.004953
-0.012955
0.095950
0.072273
0.044246
0.005434
0.007121
-0.007006
0.025861
-0.010575
0.006240
-0.055928
-0.028426
0.005631
0.068873
0.061494
-0.002086
0.061173
0.024392
0.013011
0.100188
0.078833
0.132532
0.098005
0.035420
0.064939
0.024492
0.108664
0.015730
0.024068