# vtk DataFile Version 3.0
vtk output
ASCII
DATASET POLYDATA
POINTS 2562 float
3214012954.306954 -11560178449.933477 -28162202884.849327
6453031387.528563 25425415433.088921 28179322963.588673
-53.946288 -101.019353 1.227688
-3678740643.786107 -19496625499.303600 -15160836270.136940
0.038728 -27.936227 45.798080
-972.781866 -2326.241484 3914.363865
2916043771.064105 16918246533.047218 -1040044454.040115
-17805635163.199352 -22252919525.678616 10103873817.948360
-4388116694.340012 17088414011.182819 -24421762177.392776
-16929031113.126867 21842869036.562691 22756204236.556793
-7132518104.980344 -10346656618.855532 13446798627.573944
-23.843939 0.643672 15.307238
-0.753342 -0.502405 47.089700
-14668791425.453106 -2622718868.146278 -13728742479.445057
-1292663052.018381 424267466.421850 7065772127.707086
-543.060832 -74.395812 -2188.000291
253613825.518527 -8985659073.533121 -41544809761.591072
-32.342939 -84.925135 52.537400
-3321666269.823691 1332872845.160535 -41547416737.748604
-17.568521 44.661730 27.661288
8668556589.732798 -49778875200.675346 39242138078.640793
-42.961023 -26.801557 69.818091
-13614892046.293484 -15872055564.716282 9648282148.440424
-35.964880 20.861737 57.243062
374525963.538310 -241939197.950973 25884028.652192
-56.431403 -34.761441 21.346390
-33506630075.974464 -10137925264.194832 -9673792808.719027
-1234.564680 2821.488416 325.349120
-20149368434.893795 -38536448569.621155 3385036674.473531
-42.365175 0.994547 -0.027314
-8098113670.833417 -15228758645.541075 -23094347112.397148
5341036324.651409 -22990231024.559498 -1921452822.693129
6557928728.123357 6619927965.353087 -13543799965.992481
20719292545.275707 12473802925.314953 46179119795.075348
31815736149.252132 37362322194.055130 -16162152743.618782
21377010871.519608 64004651070.345535 -31841713544.641438
13872766593.720123 -13745601913.723009 25680230218.223106
20163039798.304405 43069967663.193924 -14527666552.658239
-16605019101.550089 12113679306.932884 12768753550.985184
-1045355414.474023 -4305575345.705757 2541957072.377092
17403651303.285973 -33370861600.860622 13392922784.619541
-3941350213.860512 -19533022462.689777 -3959884994.278096
0.363787 -13.463282 48.534214
-23757471870.175797 -10124277322.150375 2623278921.795637
-14090412371.770144 2704330228.485980 -8462601754.248337
-24860.297420 31433.940352 -14812.119677
700275814.664044 -19858032834.423447 56474784810.688583
94.414686 155.408770 -56.329290
-0.556299 10.261622 35.566674
-38811789877.175690 -72322910516.978867 29733262219.829266
15064695.419351 7229611.772259 21175840.026926
-49.926739 -50.506318 11.760455
-12123282006.211142 -74467912129.342636 33291381868.359573
-234041925.041788 855012790.365119 -160060210.336997
11145138480.392412 -29785765840.439381 39824876623.976746
3569240145.152764 -5343552087.326834 13977134704.992289
329396949.732790 51712808764.420067 -10379232737.297228
-10448621667.284014 -33226089466.166748 28618705477.683640
3601591137.780259 4813505369.270830 -27123201606.831490
-47.790798 -10.826077 47.191315
20748427656.241138 -4500260686.941217 -35551287673.838516
-38.963912 8.937852 38.569502
-1752760345.348578 -50372751840.019791 -29123827343.943043
-17.025342 -73.123069 73.933185
-14.826894 -86.558770 23.950829
139654297.919745 196754799.495892 58259744.206976
1987692.985232 -259224.957344 -2826737.446293
-20026609920.633881 -25110097990.055859 9204157328.961971
5164322280.231715 2666332380.126096 -367025909.545836
-8.670795 37.914601 39.329601
17645708667.144161 -10207755363.215879 2621331812.345035
26861925734.037807 26127235152.315483 13629237.170230
22888816341.905800 91049736582.176697 -71307076317.276230
12418058607.233814 15321706452.841934 -12243411716.269089
-9595504529.949474 -34450228035.831581 37116322005.335091
-32.737911 9.929037 15.862378
-142467677.884972 -316598202.359411 82775665.060314
-51.582015 -15.532451 25.991823
2291975739.166387 -12225178512.055031 -7534931747.729509
-25.728612 -91.104183 -0.437436
-21435900580.606945 33173122497.829006 30960373416.659153
-14664418183.364964 -17701629510.125992 -11473257066.460661
2547406686.051574 -12802836511.059813 28828378326.763863
21009598.769324 739834570.080098 -82177024.659279
27019863060.936844 43086195040.043129 -14930447664.736595
76631176.903792 927784128.746856 -189392713.588307
3650027025.239336 5198976093.766422 15351925693.541588
-384411291.084550 -1334342745.200512 153359701.185356
-3431918988.994023 16178696037.491205 -26876844457.631138
-105999709.803320 -397635510.783837 252725017.264772
-37.679863 -75.211577 23.037583
-63730169.062454 463131286.796266 332639133.623174
56370811.705048 8624383.461263 -34933140.104767
30274504705.078426 718290030.022113 -31993283850.009678
-12942786151.752132 -59368896182.157997 16915153943.028378
-14205330935.017757 -14540309747.929113 10570881982.231834
36724751.911266 122248025.348786 -187039403.211227
-36.199277 8.721423 7.444326
-32.010534 -7.966496 -6.212990
-58.004153 -16.316743 10.003054
29004185962.982063 31612485637.218086 21202934680.219742
-283335497.602385 -15044109704.597906 -12186301392.604292
20852023904.426437 21951934077.064079 -20247419837.042454
-22617104329.504108 -16913840230.277220 1679031541.848635
-38.392472 0.155034 62.018786
22915217304.936466 77476500106.401672 -36446071430.143623
1363354765.895991 -48786791960.327217 15764366154.014170
20801101507.125553 54409268597.555183 -10035314780.961668
-36.111718 22.032861 30.626494
126972673.470322 32884385235.571117 -27460464650.928341
-54.364006 -33.195222 46.337052
11386884864.980389 -32814938252.170639 -13425593096.963631
1751548231.880126 16383890973.232203 -5903053470.664240
9913187696.224609 -21883423174.443111 -12016931510.666712
-28594465267.372746 -14196409850.827768 30775849099.542019
-6385143585.042809 -19314035722.008358 -6439605533.878444
-36.668256 -23.364479 0.911780
325497783.481489 -550908887.992041 4085295328.848606
-14831332002.864607 15730739969.666246 8625462186.869541
-5178045561.211954 -8241238404.917398 17124291684.530909
9363693025.675112 27298262233.764744 -15001589352.188236
-486793506.166895 4643105624.213232 -7908501858.166080
-31846694117.328438 4657252656.702973 3889199155.733953
-22.321471 -13.533752 81.182946
24932103155.487251 34924549687.922989 -2244932530.510293
-24.855232 -41.041290 81.053826
-3625240938.161818 -4607566763.314101 -12318236096.780315
-17.240961 29.056792 57.572227
-11175422612.429741 -8386710278.234784 -12965006237.986393
-19.237329 11.853719 68.835527
-1799631.932330 -974551.701487 -434436.337776
-40.598626 0.455198 11.385378
6806105966.885037 -14726616178.812304 -2426727706.433273
-193131267.111182 3563664470.870328 -1699064934.088339
-3432235893.973701 -32639361724.201984 -6153509418.994531
41298161261.221237 58867743750.591759 -31786553042.997963
-7616894088.887067 26135252710.392338 -3140715838.947921
13333186829.685131 -5223104085.825267 27133988832.642403
-23.895031 33.449988 38.455860
7306776992.541412 18453318833.608238 -616530845.183127
-38.984589 -54.305926 63.207372
4116226758.709964 -6393449387.635039 -8985126462.676916
1604978092.991482 40060107277.643364 14543263791.773888
25525344.751596 71290509.092219 -71695957.630860
-5922020.128908 58113158.453574 37132611.859102
888870668.048784 -1512541921.087799 -6135404566.821071
630916662.286867 -966182685.934334 80181208.242951
-334325228.553419 9945257389.461134 -21367248069.846268
1934207100.117856 4306484871.988232 -9417600033.173643
54389409.335773 245493613.088018 263109914.480126
-11193634785.728168 7615306661.753968 22602216169.434738
-19264644958.035408 30552183970.287354 -31671076985.737930
12901184047.113575 500761285.090696 -20385342301.908951
6663584920.105338 16906863058.941782 -12319134183.525026
-26.726277 25.219857 9.120390
-23351412321.199669 -49922248639.363319 18881626292.508350
-50.001395 -58.983869 36.428835
3341412687.897316 -3894242590.511107 -3574717240.455049
-21923725570.149532 30428689649.971695 18509294900.023617
-35060065086.538620 -45647892057.948738 17222913910.953583
6200390115.746392 -29053876558.449318 3984640042.679643
-3786020213.803380 -29640080821.445152 -58965791742.723442
9749712556.738914 20248928013.949169 -9972693892.228445
1.113843 -47.347306 45.919174
15556003605.599701 -20179606898.093914 12672671230.003778
2432.259809 12907.649593 6514.238589
-11.542730 16.574373 64.287440
48505187053.124634 28797599812.494541 -10237456973.289175
-0.759288 5.251653 40.345906
10541483615.033768 -16294946788.762880 9996544926.663528
-35445047249.411377 -1658884150.714791 55058308161.472153
7722112.213010 21429057.103079 -510838.175936
38528521.392259 -397084933.772745 407586791.403972
-36.360598 757.034695 -179.256329
-0.167625 -6.593114 44.779980
-11786246512.266329 -33012824436.255009 20713834437.601463
0.082581 -24.219732 54.826834
-9344701075.190681 -3053056264.437155 4703085415.632910
-61.076106 -64.386304 0.100782
-2209890503.525211 -7146572631.940303 5180613308.993608
25354095964.917236 -6257023997.980341 -40247432315.982826
1425375345.569858 27177714983.055702 5199395308.724165
-46.759897 -20.410372 4.235443
-41.951320 -17.100739 -4.019048
973215.024927 -51668.072131 4771990.959550
193617777.838801 75783181.052792 -207107489.266852
-56.227057 -47.866601 29.862868
7645226861.223338 704628372.659696 6666952811.496958
5.030641 306.725799 -102.342623
18987152570.084084 14140140833.302250 -48790572655.000786
-103676188.339837 357481624.389623 -1038847102.433734
29103381422.400414 44009791708.373970 12993200741.326044
105389045.961610 629937584.988885 346345651.129263
8510909983.566506 42016483274.687202 -31022462946.906239
-780858928.624505 -8185386290.856624 18934478304.843418
24268109928.071045 37846679923.521538 19128816102.737804
-18161622629.877171 -34457835715.398132 14880982026.962673
8014862033.310684 32429683981.829849 7268137628.707131
8894404640.649803 -26849155104.044724 777573450.613076
-11.461648 -19.659888 84.757542
3937717469.604867 5135460716.379707 -2376734072.436197
-9.621347 6.045745 71.840745
[...]
POINT_DATA 2562
FIELD ScalarData 1
H 1 2562 float
-527109687.552462
1446998612.911914
-1.567196
1364385845.103991
0.032849
-69.284881
1064291332.014887
-566240365.486908
107751559.140529
-364834454.187338
511110280.146695
0.514089
0.069331
-805373479.507499
252732194.988194
-23.213337
-1308959169.763191
-0.077712
1546136748.988998
0.064697
-481781374.755157
-0.068243
1942944944.891190
0.124902
-1886956.712346
0.144301
916714264.447439
226.899694
142799510.466772
0.223638
-1192441890.703136
808582537.365972
497191693.072054
-1660643271.368073
-1048735702.502150
-1253184771.436624
-541216437.552700
549278051.956962
-290741676.309235
-14725834.786956
-1789760383.100605
-393853889.921282
0.150139
-1333295192.530876
1190873298.373107
602.512142
522917233.800525
-15.434516
0.120007
-634689190.771080
240557.372931
0.013210
127696366.923135
82979895.869053
44333789.923504
315834398.934484
20519113.786797
227689997.096325
-1312400761.480551
0.079212
-2344180111.084040
0.094849
-1717857636.849829
-0.059562
-0.223830
6584424.628968
-69075.248151
-651498312.438972
-252770117.252276
-0.038181
165193623.123372
1431607572.944037
-1081170167.236263
857256014.898758
746479356.480003
0.123847
15546872.075271
0.123766
-172888336.917491
0.137642
4706957952.970510
-1646792920.220042
-1749209905.931314
36263079.890620
863039851.647674
-18875709.075503
514019296.607065
-78075350.019545
1276112908.194347
47778842.032987
-0.065202
27075316.375999
-681308.896699
258766059.043018
875231305.954180
655139757.991471
-8676640.245356
1.053211
0.042753
0.003339
318580362.044740
-1616143127.738525
903695269.448638
396903244.840233
-0.103220
-27949107.617302
-2075311457.738976
883366750.735235
-0.132492
732029817.705363
0.094327
-1817071859.520337
-1478362538.257268
496308553.464536
2494023537.395038
-3961777059.836110
0.721825
130099263.528929
942025531.137401
973374406.074026
-107604758.396452
-986863403.359031
278673200.973756
0.028622
-1667213470.390052
0.036731
1010482607.837039
0.095729
-92935952.011866
0.004462
36303.334670
-0.036979
360877584.815298
-38802342.313650
-811411301.646624
-1381540369.308653
601688190.579080
2362989693.872883
-0.103584
215349893.440746
0.136737
1063833657.014860
605074417.947317
-2476519.929458
-1984063.972940
-22316524.003186
-27161883.649642
1282800841.080100
107230057.984273
12263438.121511
631198188.380980
1398513354.246737
-1475486451.302330
-1045460712.408823
0.538500
-1256724357.784203
-0.058116
-77234042.232599
2760373756.261986
-195566060.798262
269263963.352604
-2639502287.572919
-84979373.855440
0.370165
-574863006.186493
686.292279
0.490472
-74849399.794457
0.116374
-635343561.902624
1652218002.850914
649323.773109
21178115.060164
-19.989136
0.132240
1340240618.154859
0.154528
310259033.586825
0.438745
694866924.304086
-1767135047.620971
1807980676.101213
-0.073190
0.360807
214571.281382
16304998.237851
-0.056457
234387755.224890
43.467728
-612738322.380507
78537339.101793
635393761.088492
-33587196.901185
1233098334.115335
-526865957.338334
2077805363.135291
-372796172.593486
4934154.249179
-865843388.015811
-0.019835
345219689.674338
-0.047919
-173661877.870091
-0.000249
504358035.192774
0.059048
1171513254.100623
-1553605239.026778
270219117.343932
-604141707.585806
68800244.459491
-1671525358.429736
580234059.792973
1738009838.273967
-1523142026.150119
75008999.468449
1158870390.286467
0.008885
-0.106309
577165937.309452
-0.093978
-652332510.001581
3341201773.593813
577326997.704703
-524729969.849010
-871964647.510740
579493117.982578
2483822.487244
21853.566249
-0.015815
188311605.224413
-32762.720499
-1207335077.540077
-46384.486911
1139510824.530838
-743151.181049
-367029614.193358
-53582.628087
242390241.353765
9658154.136936
1627379.009836
0.018422
-0.001292
-77647439.723861
2540051002.050585
-0.091826
680941744.613191
-0.143241
178788955.659941
-1690743039.979093
0.014023
-3883.820971
1967561849.440284
-1065079456.869427
-423996352.055479
-1112935328.043363
-1085408166.451652
892777566.242039
89226756.614224
204482680.785388
1129261496.079382
-1533108818.238779
-154354504.144366
181973019.767643
372691356.586679
369669562.739876
661377853.828449
-108325427.746822
-1.336621
-0.082455
-1281798.492047
-0.139626
1949.028694
-0.032008
707700611.077347
-12276080.373249
35601686.711578
0.044306
925717454.231956
389957.808466
-528697717.553092
-0.060579
-988072068.258404
-0.027500
-487986252.334314
-159995351.100408
-194195608.270685
93022200.715598
337676719.937962
1940806548.077246
-2163839023.855708
-1125022293.485631
-147184883.709862
-748244698.395244
-1413448743.193840
160397950.105493
-475773511.286645
813597558.712056
-356.253775
-2135411664.869579
-0.024016
169488052.627588
2336841159.184355
0.029654
-141820463.872068
0.080553
196987113.903444
786803302.935240
0.250637
2464.978089
-0.109817
0.151617
0.051276
-2471.726610
0.103156
102895.121064
-36159607.320836
609130950.154681
195155607.959405
-815246387.962471
-52333515.361618
-828031530.436425
56088842.454968
3916624233.037226
-657737322.642137
-585493118.427828
0.035467
669800221.423211
0.010747
-2597641369.176429
-1486000240.462366
0.341052
807658892.549644
0.063947
149675943.219362
-1834358474.831866
-121809220.885078
-316860774.392602
-344265101.420488
-1696939067.896937
-126218399.503748
0.109855
-21802171.295771
0.701554
1006534646.621623
-2337.719158
238545707.498785
-0.052646
-0.078956
79051774.383146
0.086873
1701165988.246377
-2748416490.335474
1733363568.392185
1708105547.792851
1085143832.999992
914573862.813606
-431484.683599
-0.083023
-283959972.041173
-0.149022
1237795637.033400
1901161990.482654
12081990.901202
355009082.918952
6446583.749862
0.006732
-910277133.659276
0.023479
139860626.246871
911829040.304430
-600496646.423762
87306474.839100
-353178079.727155
-525958660.444176
-1104446460.522771
-396558185.746636
-626346359.910536
2367559241.877384
102953613.437597
1580283854.154422
835118759.732650
79655670.723511
-146910.142425
-721587.577313
451.912896
-1357927204.801965
163740002.960762
1292337854.890251
662154.693502
1482698204.628781
-770854411.028008
-1803660335.650472
0.008457
967286049.081035
0.092918
0.465121
-5311114.688713
-0.052611
-104598.990801
-0.067282
-252742511.439308
-0.032003
-1388176718.267169
-14310.828393
-1768703552.978086
-780.377433
426421279.949639
-126694.917751
-669594515.930727
-48368.351400
-15101387.101112
0.028474
1084835070.383048
0.033628
1034450891.696314
0.139416
-8863011.198567
0.268914
560854920.813141
-390587894.776557
317926728.935859
-334246194.259717
166156182.351123
-59872262.853023
1291678552.919579
1270418852.784295
407812453.648725
30264971.559663
-1865024467.180962
13102873.134521
612740577.023821
-0.037486
3120.680922
350332460.200548
-0.145565
30102.600005
-0.003964
402199144.753178
4112141.807876
-963919813.939272
0.127386
-340283717.040396
-0.002259
-2848895581.778117
-0.156198
0.013857
2006188351.273376
-0.026290
268815335.375692
373579182.916619
-0.096063
-552210564.656208
-0.060415
-514232654.535345
-502538900.576373
-883379555.523836
907086070.041670
-2751360058.986003
0.128424
70775858.314996
0.022648
-14101233.223317
771063403.692485
-21857952.129463
-1284476823.534608
-359682718.904791
0.174161
109.525858
-224499383.297635
-0.100360
-29811.604982
2301599083.498791
-1374222626.889683
144517310.598700
886226532.297325
1628366952.091065
-486919036.198603
-73995485.232964
-1570078041.189664
1069759130.003711
735389930.397901
-2748497678.943630
-1216297452.776063
0.455670
21178758.465807
0.332852
181915878.073233
0.038261
-167278967.577412
2891252251.006212
116619949.267547
1216218475.226476
1082455093.216152
-822098090.973686
647481779.964873
-381560065.889127
-63247791.969853
491300616.638593
0.104024
695103994.038062
0.042645
-38333.771381
677026296.381570
-0.040911
-6142523.661541
-1006934714.844974
-1336526471.611342
-813627749.910357
-2669647159.134871
-123623486.818547
959641477.878812
234664588.947804
598168782.903928
1485243600.631785
-1112609289.925018
500641465.789373
-991650928.273852
-695955229.975131
-1136382547.590219
1559890552.114927
681711637.084823
820298282.811453
319575363.320708
-1322606583.309769
376996378.942441
-978221370.368185
0.260075
944711760.426248
-0.001338
65866453.519597
0.111143
4130629344.071061
0.001111
-0.005011
17222.528843
-29931259.514828
-629418136.978094
-431327855.431926
0.314692
-111266146.980224
384280423.778117
1454815621.784339
139011013.514400
-1685120860.969105
165951918.575462
-542357776.768944
2298643483.702151
-64696308.674346
-3246615.018478
-213934277.068692
-161348912.246502
-2514965453.144127
608529530.727765
-1257885263.346095
-1026749655.217404
361050846.088529
0.297111
-360638446.246319
0.116573
0.071543
-163248086.185434
-0.044314
-402938793.648849
792670890.036757
-0.031401
-2132993894.779293
-0.038425
-1.310917
-213251948.570463
0.097582
-3107.640816
-832686187.270857
-149763591.134501
459998828.905349
621063905.256917
-1496116254.305577
-245055295.525129
-665546775.818345
302916332.666486
9325804.703896
-27702083.363198
414556612.106656
159306414.721891
-1491554025.456971
535023256.900260
-865291130.825795
-0.014392
112608015.231626
0.064715
-883644129.735795
-0.071594
2161121031.286556
0.043929
-567838489.795320
731371437.501918
-1273082387.007215
-1375012497.033887
-0.048242
6721112.859960
1454327.362294
149404366.841003
-1963880.459425
-532433094.608903
-5237609.993560
-212371353.580202
952442016.799511
-1166281956.708192
1570513090.981171
0.091367
-2054333309.480723
-0.098055
0.043815
353148511.705190
0.212510
37463127.493360
0.040975
-1.141185
494568769.544337
47371.930965
401919675.722581
134186.642092
-280741657.374430
41601.511916
238549167.496357
239483.634957
-1935748587.081054
-4.084540
-16265575.269496
0.014315
-0.066383
303977530.188589
0.130246
56709737.765188
-2316212227.031655
1627780411.479529
-1775990302.517530
-1036576469.210863
-557540907.995565
1604576164.463784
-693866624.534602
976902136.378660
580123644.182916
-125.000939
479412128.541978
0.251712
-1.193067
-298251614.380073
-533929950.191375
0.078968
353795000.348264
-71.424264
252017.295119
6.344185
0.161698
380504599.854433
-963.517795
-713753916.217692
0.177488
111724637.544425
0.338946
-1369950308.482706
1310719275.963094
23960409.807130
-2149785438.752687
4517.934252
-783041059.911050
0.146419
0.030787
-714099484.139656
294009626.392516
-0.067250
282356233.507334
0.062369
-523214580.377914
-846998310.264873
-365792619.434850
-239815343.271936
555677951.605933
-243747429.511677
-456560161.182617
0.115126
-1233777305.240614
0.014370
-1536874378.076998
-0.005868
-172194605.746823
0.129349
0.182938
-1639984857.929030
-0.079732
-984069247.241500
515154514.586627
-445649.712593
-2801369343.108537
-27556.676832
70.668231
0.113547
324042977.749796
27406600.035437
2281565526.377601
1544553.691420
85015347.812815
875378002.097973
0.151941
1712.671899
1636602.166653
0.223831
-458760829.937207
15179.672554
-30544.878411
1107882284.192168
-220.699500
302284123.236164
70650238.130390
-333.175840
2065825077.550208
-291975996.534846
-605036661.578313
-1452963849.347364
-2930981251.767192
-347242704.259231
-686082966.691442
120770123.512745
-50655163.648906
228334791.381949
-0.054362
1.619130
-27190675.423720
-112723052.774446
48207651.175981
-732036602.340070
-264.889088
0.007961
0.116096
-0.044610
63672043.649144
0.041570
25463927.811441
-0.066921
82.129343
-1903514961.212621
276184493.172296
899.473984
-561501448.699574
132.549510
1751.903016
590401487.610086
-973364274.293643
273734174.739665
-287490842.823811
2199862504.334555
-1775783342.555322
-0.032455
-245038389.886879
-0.110738
-0.092260
45277658.520450
-0.049191
523295310.237740
-106265038.678481
1314389334.690078
-119570227.081258
20753688.371051
-1594596652.453595
0.003268
-1159714760.054981
-0.061487
0.007483
-3498.395994
23226.188604
322333696.003069
-115995050.583369
1307667.243580
2006564306.356561
-131011190.669846
983169965.016006
-2166127875.139542
-1085084943.601114
994934592.626526
-361905371.025371
40238161.084079
3277085714.418887
756243969.824622
490554623.783589
28716234.660165
281447.112339
0.025894
-0.082498
-90222637.614754
-0.120701
684258447.467216
1047161199.766550
0.121425
-445475816.163653
0.032645
-417706584.809295
0.143307
-2659429247.727414
0.061976
2300119029.915843
-784127917.351313
-1127295796.833880
1360056189.771679
13.160375
-71365845.708047
-0.213783
-24.127584
1370292539.442835
1692745.654573
-401241217.594672
-19154791.865640
23.983184
0.011890
-689984922.040592
-162406866.379971
-1349626434.459757
-1093143718.022214
1261377758.449099
-694994111.858745
-569236100.888401
-125375879.160995
566952803.395455
858361738.225521
66438633.904622
0.457986
37140193.556616
0.460612
1177575731.157299
26.081142
-19364.481728
644589713.158568
-280.663244
1661095504.813426
-687685256.718342
-7293.475203
45089942.183347
-0.180368
1553628833.266446
169.677641
-0.064203
-493857292.958601
-0.029043
-936205718.172964
-0.032817
642496972.644677
0.093641
-111230335.192584
-5230670.578085
-697063404.095454
-1851585.139780
-1772226357.332155
212486894.137326
-1253501336.395651
952473527.640237
-365976000.497158
-1339945024.408543
1319150854.133818
1808214225.449755
-2287967855.758880
-941940562.491667
0.062130
3095633165.688129
-0.095858
971214.473498
-349627211.244262
-0.086965
25755404.775056
686111198.598635
313492669.865303
-1739409331.713511
-539816316.992775
-1187205809.564183
1027669922.427541
678752327.442552
33551160.933564
12625.919815
-0.020557
1638191777.365223
0.018311
180869946.356400
-0.299652
1378399580.906186
-2941678722.895776
448066335.867714
-93303376.590937
32592077.501309
-414618521.445720
16335151.754800
1278803059.432113
0.252396
-153054850.420426
-0.104769
200018186.348148
185.605326
0.161513
-879421785.403735
-169518877.274892
-1845986385.429762
0.109163
2538560284.418542
-0.045234
-1254032326.308680
-6045931.600342
6515662.468154
-1339500.057179
819304882.824380
0.053742
-743983062.402816
-181249973.165472
33237797.088374
1903226623.464974
499313806.105198
-1259351058.267881
-2286009532.788290
2956905956.199998
-242967251.549865
-1529463445.399106
-305764129.777283
-252879496.749617
0.018260
875779837.948092
-0.074771
188970543.396660
-829223426.455119
0.056562
200049974.845154
0.078681
706545661.462776
-2002277226.908223
360910261.570078
257706800.251291
508849109.750598
321813666.954583
-1362875723.618567
-280801605.737177
0.072570
449446.185671
0.171722
-8502437.439757
0.068058
119262084.220063
-152513.831428
-417704718.828474
-652624039.906177
2292956080.362382
954688283.113730
-2070881655.412198
-516707487.712027
463482295.367302
1920932531.305306
-1028834220.769670
0.001418
-2168381743.352729
-0.058922
1568446254.660723
0.303167
443400244.519106
0.434409
-110301039.339549
-1509961818.063786
-89244165.012110
979738617.380735
-251187336.539033
0.070926
552.361425
-111744950.851627
-51263574.644144
2547271623.423559
0.301172
89188748.712124
0.151665
-1166785956.193124
899376263.266054
-707689256.840568
316721953.681604
-994284751.999293
155912710.135314
228.618380
-92658410.504358
-0.003895
-875874.456207
735197564.219418
-942378828.247455
-63323986.349674
-34652689.519488
-2152177375.103039
-474852142.719394
-669090564.174672
1465234203.975640
1169753471.164429
-985772874.565675
-5952148.373382
1043884200.392954
-47952211.210700
-802666443.108769
-15339572.832485
1282178990.165903
-243804084.728133
10266.136344
-7396.184888
754271450.550758
-88.609544
1162642879.334143
-1985106574.726187
-475.680166
61129677.440746
0.120447
838821594.770480
-0.610665
599398013.398284
-1200989857.636981
1486694156.858793
935291422.219111
-1161711462.504144
2116408558.013782
988667486.619716
950605479.575623
163906.711981
0.133427
201939.356613
0.132515
-638254748.969572
-74659189.591146
-1990047080.236901
121492002.083961
2826.462333
247903462.542184
0.446806
674074494.349542
29.096413
-1383550069.135573
0.229015
100654585.622041
-1085157561.758481
-172552417.393513
1147492345.487159
2719309905.984167
214838048.882375
1567147595.964234
215141215.201163
291053502.729123
-325526838.468836
1759346364.977597
76684855.364975
803766957.221922
-1937646613.441499
-35091246.502280
-240551337.998624
196996646.149214
0.133297
-506822120.563712
0.098182
-80500361.195477
405.707397
985208878.046476
0.054121
160643735.234405
435749490.620217
836519980.705047
-805305443.249148
-2149333868.053455
-514275477.633093
-0.041031
-280056114.090581
-0.056592
1845233120.852849
710729540.200218
424747282.749112
-1477704822.245161
-997270495.506734
-0.269008
-1366159924.439467
0.129630
-151667644.270077
-1886294.631433
-622835788.000679
-873087.418975
-366055237.699634
-26493556.577029
-647331433.216918
23724732.153744
1550427813.081261
-1920291958.609143
193110648.230239
-419803912.493930
-953205185.254868
2210446160.531233
-559793152.142999
-959444018.259190
-277673608.024917
0.126812
-190824510.159734
-0.088345
87143931.642703
0.030489
1113878698.673121
0.024186
1191970298.365902
1811438142.426506
160640871.306471
-861448964.666362
519114030.213017
298909971.298729
0.176854
-3377.672460
0.283327
-2923122.724597
0.308737
175982498.782869
-2224243483.611626
-99019977.494820
-1324726096.780851
1554855973.585699
-121162372.138503
197246950.257262
246034665.539817
-2404727067.347397
-1718161329.829310
0.026071
-1256864417.389557
0.105872
621327822.458181
-847227171.361729
424579176.678640
-90331806.673776
-668760149.794212
-195670211.551572
597001859.603567
268871924.664084
-11099570.082161
427497609.280401
-1402246.534455
115456470.553864
-555324296.475767
-719599166.874239
-720329564.872258
117502447.383855
-0.071560
-1973261089.979805
-0.012528
2798031689.640414
0.297913
2820566.487482
-0.082171
0.279423
0.051163
-5542594.335601
185611234.743233
1553127936.170969
-254047447.186981
1370168875.994936
-838833919.298787
480647908.114034
7827432.525845
1710001652.887233
0.092897
-2963296635.936505
0.066170
-797405119.797320
-0.031841
58.663657
-52762073.778237
-459136250.947807
-1880159646.354141
-1579866853.957598
-1985845870.297348
-254162385.610003
-1517069685.956870
-249232166.101227
-346031263.429953
23302231.661513
0.106870
-338791763.092659
0.005276
1216559279.115452
2189335929.176002
-1684473011.798011
554750692.432781
264623572.197371
993680922.135114
0.022680
1415520839.683041
0.041862
0.080240
1054664709.627219
-0.096363
-406147761.651114
-0.008132
0.240787
488834530.542549
-375764.923780
98445420.762954
-37491.947010
-1817463596.659007
-28850523.597562
-694432125.666291
1011203019.024558
0.049712
-57710221.588951
0.202298
-1613986.612735
-147713325.161505
-0.014441
548280328.619220
-0.020509
763555068.254896
-0.208269
-1531057605.727296
-14.519633
2058072.914459
925906786.191331
-1099569.409274
66164051.925612
707606394.977160
343170760.766079
-209397866.800025
507075889.042265
-287457966.216300
-6468.463835
445568954.100084
0.033155
823277448.442186
712905315.303836
138654636.672338
951074140.023845
-115750490.462449
-0.090207
-2691622239.696596
0.302288
-591721274.541712
0.224655
-0.004314
1813380102.192593
-0.284977
1694330302.403735
-0.173138
903137263.394685
-0.105355
-2839089089.016359
2014770679.236219
509935452.100753
-496423848.860879
-573756721.447025
0.185260
1161130108.574351
-0.118123
78.185626
-2052913237.571618
-0.076515
-113005462.057207
-0.018157
-69139871.263844
-1596258668.440016
286701472.928738
1470738367.736961
-1548466057.165207
1793394773.258285
46936.348229
0.017748
356410951.580248
154159374.110878
-1352589883.158065
-1165886190.459107
644214804.927344
2471311961.803707
4000641.130942
-0.027108
4696384.637210
0.523386
-594709433.471393
-0.107430
-1357699828.850368
-0.001829
0.016678
-1105763680.084195
0.197361
-833253304.730051
-1227760043.959655
-0.088770
-364795442.836109
0.024420
708059598.294727
1414744918.384232
-660615695.227314
-708470774.715129
0.082061
-19173.984547
20.018693
-420021220.441939
-0.173891
-14354.479782
0.156335
0.519239
0.007445
298173294.364472
0.015214
-629679227.652815
-0.094443
47154276.492592
99217.135251